+ 0.1 1 2 cbr 1000 ------- 2 1.0 3.0 0 0
- 0.1 1 2 cbr 1000 ------- 2 1.0 3.0 0 0
+ 0.105 1 2 cbr 1000 ------- 2 1.0 3.0 1 1
- 0.105 1 2 cbr 1000 ------- 2 1.0 3.0 1 1
+ 0.11 1 2 cbr 1000 ------- 2 1.0 3.0 2 2
- 0.11 1 2 cbr 1000 ------- 2 1.0 3.0 2 2
r 0.114 1 2 cbr 1000 ------- 2 1.0 3.0 0 0
+ 0.114 2 3 cbr 1000 ------- 2 1.0 3.0 0 0
- 0.114 2 3 cbr 1000 ------- 2 1.0 3.0 0 0
+ 0.115 1 2 cbr 1000 ------- 2 1.0 3.0 3 3
- 0.115 1 2 cbr 1000 ------- 2 1.0 3.0 3 3
r 0.119 1 2 cbr 1000 ------- 2 1.0 3.0 1 1
+ 0.119 2 3 cbr 1000 ------- 2 1.0 3.0 1 1
- 0.119 2 3 cbr 1000 ------- 2 1.0 3.0 1 1
+ 0.12 1 2 cbr 1000 ------- 2 1.0 3.0 4 4
- 0.12 1 2 cbr 1000 ------- 2 1.0 3.0 4 4
r 0.124 1 2 cbr 1000 ------- 2 1.0 3.0 2 2
+ 0.124 2 3 cbr 1000 ------- 2 1.0 3.0 2 2
- 0.124 2 3 cbr 1000 ------- 2 1.0 3.0 2 2
+ 0.125 1 2 cbr 1000 ------- 2 1.0 3.0 5 5
- 0.125 1 2 cbr 1000 ------- 2 1.0 3.0 5 5
r 0.129 1 2 cbr 1000 ------- 2 1.0 3.0 3 3
+ 0.129 2 3 cbr 1000 ------- 2 1.0 3.0 3 3
- 0.129 2 3 cbr 1000 ------- 2 1.0 3.0 3 3
+ 0.13 1 2 cbr 1000 ------- 2 1.0 3.0 6 6
- 0.13 1 2 cbr 1000 ------- 2 1.0 3.0 6 6
r 0.134 1 2 cbr 1000 ------- 2 1.0 3.0 4 4
+ 0.134 2 3 cbr 1000 ------- 2 1.0 3.0 4 4
- 0.134 2 3 cbr 1000 ------- 2 1.0 3.0 4 4
+ 0.135 1 2 cbr 1000 ------- 2 1.0 3.0 7 7
- 0.135 1 2 cbr 1000 ------- 2 1.0 3.0 7 7
r 0.136909 2 3 cbr 1000 ------- 2 1.0 3.0 0 0
r 0.139 1 2 cbr 1000 ------- 2 1.0 3.0 5 5
+ 0.139 2 3 cbr 1000 ------- 2 1.0 3.0 5 5
- 0.139 2 3 cbr 1000 ------- 2 1.0 3.0 5 5
+ 0.14 1 2 cbr 1000 ------- 2 1.0 3.0 8 8
- 0.14 1 2 cbr 1000 ------- 2 1.0 3.0 8 8
r 0.141909 2 3 cbr 1000 ------- 2 1.0 3.0 1 1
r 0.144 1 2 cbr 1000 ------- 2 1.0 3.0 6 6
+ 0.144 2 3 cbr 1000 ------- 2 1.0 3.0 6 6
- 0.144 2 3 cbr 1000 ------- 2 1.0 3.0 6 6
+ 0.145 1 2 cbr 1000 ------- 2 1.0 3.0 9 9
- 0.145 1 2 cbr 1000 ------- 2 1.0 3.0 9 9
r 0.146909 2 3 cbr 1000 ------- 2 1.0 3.0 2 2
r 0.149 1 2 cbr 1000 ------- 2 1.0 3.0 7 7
+ 0.149 2 3 cbr 1000 ------- 2 1.0 3.0 7 7
- 0.149 2 3 cbr 1000 ------- 2 1.0 3.0 7 7
+ 0.15 1 2 cbr 1000 ------- 2 1.0 3.0 10 10
- 0.15 1 2 cbr 1000 ------- 2 1.0 3.0 10 10
r 0.151909 2 3 cbr 1000 ------- 2 1.0 3.0 3 3
r 0.154 1 2 cbr 1000 ------- 2 1.0 3.0 8 8
+ 0.154 2 3 cbr 1000 ------- 2 1.0 3.0 8 8
- 0.154 2 3 cbr 1000 ------- 2 1.0 3.0 8 8
+ 0.155 1 2 cbr 1000 ------- 2 1.0 3.0 11 11
- 0.155 1 2 cbr 1000 ------- 2 1.0 3.0 11 11
r 0.156909 2 3 cbr 1000 ------- 2 1.0 3.0 4 4
r 0.159 1 2 cbr 1000 ------- 2 1.0 3.0 9 9
+ 0.159 2 3 cbr 1000 ------- 2 1.0 3.0 9 9
- 0.159 2 3 cbr 1000 ------- 2 1.0 3.0 9 9
+ 0.16 1 2 cbr 1000 ------- 2 1.0 3.0 12 12
- 0.16 1 2 cbr 1000 ------- 2 1.0 3.0 12 12
r 0.161909 2 3 cbr 1000 ------- 2 1.0 3.0 5 5
r 0.164 1 2 cbr 1000 ------- 2 1.0 3.0 10 10
+ 0.164 2 3 cbr 1000 ------- 2 1.0 3.0 10 10
- 0.164 2 3 cbr 1000 ------- 2 1.0 3.0 10 10
+ 0.165 1 2 cbr 1000 ------- 2 1.0 3.0 13 13
- 0.165 1 2 cbr 1000 ------- 2 1.0 3.0 13 13
r 0.166909 2 3 cbr 1000 ------- 2 1.0 3.0 6 6
r 0.169 1 2 cbr 1000 ------- 2 1.0 3.0 11 11
+ 0.169 2 3 cbr 1000 ------- 2 1.0 3.0 11 11
- 0.169 2 3 cbr 1000 ------- 2 1.0 3.0 11 11
+ 0.17 1 2 cbr 1000 ------- 2 1.0 3.0 14 14
- 0.17 1 2 cbr 1000 ------- 2 1.0 3.0 14 14
r 0.171909 2 3 cbr 1000 ------- 2 1.0 3.0 7 7
r 0.174 1 2 cbr 1000 ------- 2 1.0 3.0 12 12
+ 0.174 2 3 cbr 1000 ------- 2 1.0 3.0 12 12
- 0.174 2 3 cbr 1000 ------- 2 1.0 3.0 12 12
+ 0.175 1 2 cbr 1000 ------- 2 1.0 3.0 15 15
- 0.175 1 2 cbr 1000 ------- 2 1.0 3.0 15 15
r 0.176909 2 3 cbr 1000 ------- 2 1.0 3.0 8 8
r 0.179 1 2 cbr 1000 ------- 2 1.0 3.0 13 13
+ 0.179 2 3 cbr 1000 ------- 2 1.0 3.0 13 13
- 0.179 2 3 cbr 1000 ------- 2 1.0 3.0 13 13
+ 0.18 1 2 cbr 1000 ------- 2 1.0 3.0 16 16
- 0.18 1 2 cbr 1000 ------- 2 1.0 3.0 16 16
r 0.181909 2 3 cbr 1000 ------- 2 1.0 3.0 9 9
r 0.184 1 2 cbr 1000 ------- 2 1.0 3.0 14 14
+ 0.184 2 3 cbr 1000 ------- 2 1.0 3.0 14 14
- 0.184 2 3 cbr 1000 ------- 2 1.0 3.0 14 14
+ 0.185 1 2 cbr 1000 ------- 2 1.0 3.0 17 17
- 0.185 1 2 cbr 1000 ------- 2 1.0 3.0 17 17
r 0.186909 2 3 cbr 1000 ------- 2 1.0 3.0 10 10
r 0.189 1 2 cbr 1000 ------- 2 1.0 3.0 15 15
+ 0.189 2 3 cbr 1000 ------- 2 1.0 3.0 15 15
- 0.189 2 3 cbr 1000 ------- 2 1.0 3.0 15 15
+ 0.19 1 2 cbr 1000 ------- 2 1.0 3.0 18 18
- 0.19 1 2 cbr 1000 ------- 2 1.0 3.0 18 18
r 0.191909 2 3 cbr 1000 ------- 2 1.0 3.0 11 11
r 0.194 1 2 cbr 1000 ------- 2 1.0 3.0 16 16
+ 0.194 2 3 cbr 1000 ------- 2 1.0 3.0 16 16
- 0.194 2 3 cbr 1000 ------- 2 1.0 3.0 16 16
+ 0.195 1 2 cbr 1000 ------- 2 1.0 3.0 19 19
- 0.195 1 2 cbr 1000 ------- 2 1.0 3.0 19 19
r 0.196909 2 3 cbr 1000 ------- 2 1.0 3.0 12 12
r 0.199 1 2 cbr 1000 ------- 2 1.0 3.0 17 17
+ 0.199 2 3 cbr 1000 ------- 2 1.0 3.0 17 17
- 0.199 2 3 cbr 1000 ------- 2 1.0 3.0 17 17
+ 0.2 1 2 cbr 1000 ------- 2 1.0 3.0 20 20
- 0.2 1 2 cbr 1000 ------- 2 1.0 3.0 20 20
r 0.201909 2 3 cbr 1000 ------- 2 1.0 3.0 13 13
r 0.204 1 2 cbr 1000 ------- 2 1.0 3.0 18 18
+ 0.204 2 3 cbr 1000 ------- 2 1.0 3.0 18 18
- 0.204 2 3 cbr 1000 ------- 2 1.0 3.0 18 18
+ 0.205 1 2 cbr 1000 ------- 2 1.0 3.0 21 21
- 0.205 1 2 cbr 1000 ------- 2 1.0 3.0 21 21
r 0.206909 2 3 cbr 1000 ------- 2 1.0 3.0 14 14
r 0.209 1 2 cbr 1000 ------- 2 1.0 3.0 19 19
+ 0.209 2 3 cbr 1000 ------- 2 1.0 3.0 19 19
- 0.209 2 3 cbr 1000 ------- 2 1.0 3.0 19 19
+ 0.21 1 2 cbr 1000 ------- 2 1.0 3.0 22 22
- 0.21 1 2 cbr 1000 ------- 2 1.0 3.0 22 22
r 0.211909 2 3 cbr 1000 ------- 2 1.0 3.0 15 15
r 0.214 1 2 cbr 1000 ------- 2 1.0 3.0 20 20
+ 0.214 2 3 cbr 1000 ------- 2 1.0 3.0 20 20
- 0.214 2 3 cbr 1000 ------- 2 1.0 3.0 20 20
+ 0.215 1 2 cbr 1000 ------- 2 1.0 3.0 23 23
- 0.215 1 2 cbr 1000 ------- 2 1.0 3.0 23 23
r 0.216909 2 3 cbr 1000 ------- 2 1.0 3.0 16 16
r 0.219 1 2 cbr 1000 ------- 2 1.0 3.0 21 21
+ 0.219 2 3 cbr 1000 ------- 2 1.0 3.0 21 21
- 0.219 2 3 cbr 1000 ------- 2 1.0 3.0 21 21
+ 0.22 1 2 cbr 1000 ------- 2 1.0 3.0 24 24
- 0.22 1 2 cbr 1000 ------- 2 1.0 3.0 24 24
r 0.221909 2 3 cbr 1000 ------- 2 1.0 3.0 17 17
r 0.224 1 2 cbr 1000 ------- 2 1.0 3.0 22 22
+ 0.224 2 3 cbr 1000 ------- 2 1.0 3.0 22 22
- 0.224 2 3 cbr 1000 ------- 2 1.0 3.0 22 22
+ 0.225 1 2 cbr 1000 ------- 2 1.0 3.0 25 25
- 0.225 1 2 cbr 1000 ------- 2 1.0 3.0 25 25
r 0.226909 2 3 cbr 1000 ------- 2 1.0 3.0 18 18
r 0.229 1 2 cbr 1000 ------- 2 1.0 3.0 23 23
+ 0.229 2 3 cbr 1000 ------- 2 1.0 3.0 23 23
- 0.229 2 3 cbr 1000 ------- 2 1.0 3.0 23 23
+ 0.23 1 2 cbr 1000 ------- 2 1.0 3.0 26 26
- 0.23 1 2 cbr 1000 ------- 2 1.0 3.0 26 26
r 0.231909 2 3 cbr 1000 ------- 2 1.0 3.0 19 19
r 0.234 1 2 cbr 1000 ------- 2 1.0 3.0 24 24
+ 0.234 2 3 cbr 1000 ------- 2 1.0 3.0 24 24
- 0.234 2 3 cbr 1000 ------- 2 1.0 3.0 24 24
+ 0.235 1 2 cbr 1000 ------- 2 1.0 3.0 27 27
- 0.235 1 2 cbr 1000 ------- 2 1.0 3.0 27 27
r 0.236909 2 3 cbr 1000 ------- 2 1.0 3.0 20 20
r 0.239 1 2 cbr 1000 ------- 2 1.0 3.0 25 25
+ 0.239 2 3 cbr 1000 ------- 2 1.0 3.0 25 25
- 0.239 2 3 cbr 1000 ------- 2 1.0 3.0 25 25
+ 0.24 1 2 cbr 1000 ------- 2 1.0 3.0 28 28
- 0.24 1 2 cbr 1000 ------- 2 1.0 3.0 28 28
r 0.241909 2 3 cbr 1000 ------- 2 1.0 3.0 21 21
r 0.244 1 2 cbr 1000 ------- 2 1.0 3.0 26 26
+ 0.244 2 3 cbr 1000 ------- 2 1.0 3.0 26 26
- 0.244 2 3 cbr 1000 ------- 2 1.0 3.0 26 26
+ 0.245 1 2 cbr 1000 ------- 2 1.0 3.0 29 29
- 0.245 1 2 cbr 1000 ------- 2 1.0 3.0 29 29
r 0.246909 2 3 cbr 1000 ------- 2 1.0 3.0 22 22
r 0.249 1 2 cbr 1000 ------- 2 1.0 3.0 27 27
+ 0.249 2 3 cbr 1000 ------- 2 1.0 3.0 27 27
- 0.249 2 3 cbr 1000 ------- 2 1.0 3.0 27 27
+ 0.25 1 2 cbr 1000 ------- 2 1.0 3.0 30 30
- 0.25 1 2 cbr 1000 ------- 2 1.0 3.0 30 30
r 0.251909 2 3 cbr 1000 ------- 2 1.0 3.0 23 23
r 0.254 1 2 cbr 1000 ------- 2 1.0 3.0 28 28
+ 0.254 2 3 cbr 1000 ------- 2 1.0 3.0 28 28
- 0.254 2 3 cbr 1000 ------- 2 1.0 3.0 28 28
+ 0.255 1 2 cbr 1000 ------- 2 1.0 3.0 31 31
- 0.255 1 2 cbr 1000 ------- 2 1.0 3.0 31 31
r 0.256909 2 3 cbr 1000 ------- 2 1.0 3.0 24 24
r 0.259 1 2 cbr 1000 ------- 2 1.0 3.0 29 29
+ 0.259 2 3 cbr 1000 ------- 2 1.0 3.0 29 29
- 0.259 2 3 cbr 1000 ------- 2 1.0 3.0 29 29
+ 0.26 1 2 cbr 1000 ------- 2 1.0 3.0 32 32
- 0.26 1 2 cbr 1000 ------- 2 1.0 3.0 32 32
r 0.261909 2 3 cbr 1000 ------- 2 1.0 3.0 25 25
r 0.264 1 2 cbr 1000 ------- 2 1.0 3.0 30 30
+ 0.264 2 3 cbr 1000 ------- 2 1.0 3.0 30 30
- 0.264 2 3 cbr 1000 ------- 2 1.0 3.0 30 30
+ 0.265 1 2 cbr 1000 ------- 2 1.0 3.0 33 33
- 0.265 1 2 cbr 1000 ------- 2 1.0 3.0 33 33
r 0.266909 2 3 cbr 1000 ------- 2 1.0 3.0 26 26
r 0.269 1 2 cbr 1000 ------- 2 1.0 3.0 31 31
+ 0.269 2 3 cbr 1000 ------- 2 1.0 3.0 31 31
- 0.269 2 3 cbr 1000 ------- 2 1.0 3.0 31 31
+ 0.27 1 2 cbr 1000 ------- 2 1.0 3.0 34 34
- 0.27 1 2 cbr 1000 ------- 2 1.0 3.0 34 34
r 0.271909 2 3 cbr 1000 ------- 2 1.0 3.0 27 27
r 0.274 1 2 cbr 1000 ------- 2 1.0 3.0 32 32
+ 0.274 2 3 cbr 1000 ------- 2 1.0 3.0 32 32
- 0.274 2 3 cbr 1000 ------- 2 1.0 3.0 32 32
+ 0.275 1 2 cbr 1000 ------- 2 1.0 3.0 35 35
- 0.275 1 2 cbr 1000 ------- 2 1.0 3.0 35 35
r 0.276909 2 3 cbr 1000 ------- 2 1.0 3.0 28 28
r 0.279 1 2 cbr 1000 ------- 2 1.0 3.0 33 33
+ 0.279 2 3 cbr 1000 ------- 2 1.0 3.0 33 33
- 0.279 2 3 cbr 1000 ------- 2 1.0 3.0 33 33
+ 0.28 1 2 cbr 1000 ------- 2 1.0 3.0 36 36
- 0.28 1 2 cbr 1000 ------- 2 1.0 3.0 36 36
r 0.281909 2 3 cbr 1000 ------- 2 1.0 3.0 29 29
r 0.284 1 2 cbr 1000 ------- 2 1.0 3.0 34 34
+ 0.284 2 3 cbr 1000 ------- 2 1.0 3.0 34 34
- 0.284 2 3 cbr 1000 ------- 2 1.0 3.0 34 34
+ 0.285 1 2 cbr 1000 ------- 2 1.0 3.0 37 37
- 0.285 1 2 cbr 1000 ------- 2 1.0 3.0 37 37
r 0.286909 2 3 cbr 1000 ------- 2 1.0 3.0 30 30
r 0.289 1 2 cbr 1000 ------- 2 1.0 3.0 35 35
+ 0.289 2 3 cbr 1000 ------- 2 1.0 3.0 35 35
- 0.289 2 3 cbr 1000 ------- 2 1.0 3.0 35 35
+ 0.29 1 2 cbr 1000 ------- 2 1.0 3.0 38 38
- 0.29 1 2 cbr 1000 ------- 2 1.0 3.0 38 38
r 0.291909 2 3 cbr 1000 ------- 2 1.0 3.0 31 31
r 0.294 1 2 cbr 1000 ------- 2 1.0 3.0 36 36
+ 0.294 2 3 cbr 1000 ------- 2 1.0 3.0 36 36
- 0.294 2 3 cbr 1000 ------- 2 1.0 3.0 36 36
+ 0.295 1 2 cbr 1000 ------- 2 1.0 3.0 39 39
- 0.295 1 2 cbr 1000 ------- 2 1.0 3.0 39 39
r 0.296909 2 3 cbr 1000 ------- 2 1.0 3.0 32 32
r 0.299 1 2 cbr 1000 ------- 2 1.0 3.0 37 37
+ 0.299 2 3 cbr 1000 ------- 2 1.0 3.0 37 37
- 0.299 2 3 cbr 1000 ------- 2 1.0 3.0 37 37
+ 0.3 1 2 cbr 1000 ------- 2 1.0 3.0 40 40
- 0.3 1 2 cbr 1000 ------- 2 1.0 3.0 40 40
r 0.301909 2 3 cbr 1000 ------- 2 1.0 3.0 33 33
r 0.304 1 2 cbr 1000 ------- 2 1.0 3.0 38 38
+ 0.304 2 3 cbr 1000 ------- 2 1.0 3.0 38 38
- 0.304 2 3 cbr 1000 ------- 2 1.0 3.0 38 38
+ 0.305 1 2 cbr 1000 ------- 2 1.0 3.0 41 41
- 0.305 1 2 cbr 1000 ------- 2 1.0 3.0 41 41
r 0.306909 2 3 cbr 1000 ------- 2 1.0 3.0 34 34
r 0.309 1 2 cbr 1000 ------- 2 1.0 3.0 39 39
+ 0.309 2 3 cbr 1000 ------- 2 1.0 3.0 39 39
- 0.309 2 3 cbr 1000 ------- 2 1.0 3.0 39 39
+ 0.31 1 2 cbr 1000 ------- 2 1.0 3.0 42 42
- 0.31 1 2 cbr 1000 ------- 2 1.0 3.0 42 42
r 0.311909 2 3 cbr 1000 ------- 2 1.0 3.0 35 35
r 0.314 1 2 cbr 1000 ------- 2 1.0 3.0 40 40
+ 0.314 2 3 cbr 1000 ------- 2 1.0 3.0 40 40
- 0.314 2 3 cbr 1000 ------- 2 1.0 3.0 40 40
+ 0.315 1 2 cbr 1000 ------- 2 1.0 3.0 43 43
- 0.315 1 2 cbr 1000 ------- 2 1.0 3.0 43 43
r 0.316909 2 3 cbr 1000 ------- 2 1.0 3.0 36 36
r 0.319 1 2 cbr 1000 ------- 2 1.0 3.0 41 41
+ 0.319 2 3 cbr 1000 ------- 2 1.0 3.0 41 41
- 0.319 2 3 cbr 1000 ------- 2 1.0 3.0 41 41
+ 0.32 1 2 cbr 1000 ------- 2 1.0 3.0 44 44
- 0.32 1 2 cbr 1000 ------- 2 1.0 3.0 44 44
r 0.321909 2 3 cbr 1000 ------- 2 1.0 3.0 37 37
r 0.324 1 2 cbr 1000 ------- 2 1.0 3.0 42 42
+ 0.324 2 3 cbr 1000 ------- 2 1.0 3.0 42 42
- 0.324 2 3 cbr 1000 ------- 2 1.0 3.0 42 42
+ 0.325 1 2 cbr 1000 ------- 2 1.0 3.0 45 45
- 0.325 1 2 cbr 1000 ------- 2 1.0 3.0 45 45
r 0.326909 2 3 cbr 1000 ------- 2 1.0 3.0 38 38
r 0.329 1 2 cbr 1000 ------- 2 1.0 3.0 43 43
+ 0.329 2 3 cbr 1000 ------- 2 1.0 3.0 43 43
- 0.329 2 3 cbr 1000 ------- 2 1.0 3.0 43 43
+ 0.33 1 2 cbr 1000 ------- 2 1.0 3.0 46 46
- 0.33 1 2 cbr 1000 ------- 2 1.0 3.0 46 46
r 0.331909 2 3 cbr 1000 ------- 2 1.0 3.0 39 39
r 0.334 1 2 cbr 1000 ------- 2 1.0 3.0 44 44
+ 0.334 2 3 cbr 1000 ------- 2 1.0 3.0 44 44
- 0.334 2 3 cbr 1000 ------- 2 1.0 3.0 44 44
+ 0.335 1 2 cbr 1000 ------- 2 1.0 3.0 47 47
- 0.335 1 2 cbr 1000 ------- 2 1.0 3.0 47 47
r 0.336909 2 3 cbr 1000 ------- 2 1.0 3.0 40 40
r 0.339 1 2 cbr 1000 ------- 2 1.0 3.0 45 45
+ 0.339 2 3 cbr 1000 ------- 2 1.0 3.0 45 45
- 0.339 2 3 cbr 1000 ------- 2 1.0 3.0 45 45
+ 0.34 1 2 cbr 1000 ------- 2 1.0 3.0 48 48
- 0.34 1 2 cbr 1000 ------- 2 1.0 3.0 48 48
r 0.341909 2 3 cbr 1000 ------- 2 1.0 3.0 41 41
r 0.344 1 2 cbr 1000 ------- 2 1.0 3.0 46 46
+ 0.344 2 3 cbr 1000 ------- 2 1.0 3.0 46 46
- 0.344 2 3 cbr 1000 ------- 2 1.0 3.0 46 46
+ 0.345 1 2 cbr 1000 ------- 2 1.0 3.0 49 49
- 0.345 1 2 cbr 1000 ------- 2 1.0 3.0 49 49
r 0.346909 2 3 cbr 1000 ------- 2 1.0 3.0 42 42
r 0.349 1 2 cbr 1000 ------- 2 1.0 3.0 47 47
+ 0.349 2 3 cbr 1000 ------- 2 1.0 3.0 47 47
- 0.349 2 3 cbr 1000 ------- 2 1.0 3.0 47 47
+ 0.35 1 2 cbr 1000 ------- 2 1.0 3.0 50 50
- 0.35 1 2 cbr 1000 ------- 2 1.0 3.0 50 50
r 0.351909 2 3 cbr 1000 ------- 2 1.0 3.0 43 43
r 0.354 1 2 cbr 1000 ------- 2 1.0 3.0 48 48
+ 0.354 2 3 cbr 1000 ------- 2 1.0 3.0 48 48
- 0.354 2 3 cbr 1000 ------- 2 1.0 3.0 48 48
+ 0.355 1 2 cbr 1000 ------- 2 1.0 3.0 51 51
- 0.355 1 2 cbr 1000 ------- 2 1.0 3.0 51 51
r 0.356909 2 3 cbr 1000 ------- 2 1.0 3.0 44 44
r 0.359 1 2 cbr 1000 ------- 2 1.0 3.0 49 49
+ 0.359 2 3 cbr 1000 ------- 2 1.0 3.0 49 49
- 0.359 2 3 cbr 1000 ------- 2 1.0 3.0 49 49
+ 0.36 1 2 cbr 1000 ------- 2 1.0 3.0 52 52
- 0.36 1 2 cbr 1000 ------- 2 1.0 3.0 52 52
r 0.361909 2 3 cbr 1000 ------- 2 1.0 3.0 45 45
r 0.364 1 2 cbr 1000 ------- 2 1.0 3.0 50 50
+ 0.364 2 3 cbr 1000 ------- 2 1.0 3.0 50 50
- 0.364 2 3 cbr 1000 ------- 2 1.0 3.0 50 50
+ 0.365 1 2 cbr 1000 ------- 2 1.0 3.0 53 53
- 0.365 1 2 cbr 1000 ------- 2 1.0 3.0 53 53
r 0.366909 2 3 cbr 1000 ------- 2 1.0 3.0 46 46
r 0.369 1 2 cbr 1000 ------- 2 1.0 3.0 51 51
+ 0.369 2 3 cbr 1000 ------- 2 1.0 3.0 51 51
- 0.369 2 3 cbr 1000 ------- 2 1.0 3.0 51 51
+ 0.37 1 2 cbr 1000 ------- 2 1.0 3.0 54 54
- 0.37 1 2 cbr 1000 ------- 2 1.0 3.0 54 54
r 0.371909 2 3 cbr 1000 ------- 2 1.0 3.0 47 47
r 0.374 1 2 cbr 1000 ------- 2 1.0 3.0 52 52
+ 0.374 2 3 cbr 1000 ------- 2 1.0 3.0 52 52
- 0.374 2 3 cbr 1000 ------- 2 1.0 3.0 52 52
+ 0.375 1 2 cbr 1000 ------- 2 1.0 3.0 55 55
- 0.375 1 2 cbr 1000 ------- 2 1.0 3.0 55 55
r 0.376909 2 3 cbr 1000 ------- 2 1.0 3.0 48 48
r 0.379 1 2 cbr 1000 ------- 2 1.0 3.0 53 53
+ 0.379 2 3 cbr 1000 ------- 2 1.0 3.0 53 53
- 0.379 2 3 cbr 1000 ------- 2 1.0 3.0 53 53
+ 0.38 1 2 cbr 1000 ------- 2 1.0 3.0 56 56
- 0.38 1 2 cbr 1000 ------- 2 1.0 3.0 56 56
r 0.381909 2 3 cbr 1000 ------- 2 1.0 3.0 49 49
r 0.384 1 2 cbr 1000 ------- 2 1.0 3.0 54 54
+ 0.384 2 3 cbr 1000 ------- 2 1.0 3.0 54 54
- 0.384 2 3 cbr 1000 ------- 2 1.0 3.0 54 54
+ 0.385 1 2 cbr 1000 ------- 2 1.0 3.0 57 57
- 0.385 1 2 cbr 1000 ------- 2 1.0 3.0 57 57
r 0.386909 2 3 cbr 1000 ------- 2 1.0 3.0 50 50
r 0.389 1 2 cbr 1000 ------- 2 1.0 3.0 55 55
+ 0.389 2 3 cbr 1000 ------- 2 1.0 3.0 55 55
- 0.389 2 3 cbr 1000 ------- 2 1.0 3.0 55 55
+ 0.39 1 2 cbr 1000 ------- 2 1.0 3.0 58 58
- 0.39 1 2 cbr 1000 ------- 2 1.0 3.0 58 58
r 0.391909 2 3 cbr 1000 ------- 2 1.0 3.0 51 51
r 0.394 1 2 cbr 1000 ------- 2 1.0 3.0 56 56
+ 0.394 2 3 cbr 1000 ------- 2 1.0 3.0 56 56
- 0.394 2 3 cbr 1000 ------- 2 1.0 3.0 56 56
+ 0.395 1 2 cbr 1000 ------- 2 1.0 3.0 59 59
- 0.395 1 2 cbr 1000 ------- 2 1.0 3.0 59 59
r 0.396909 2 3 cbr 1000 ------- 2 1.0 3.0 52 52
r 0.399 1 2 cbr 1000 ------- 2 1.0 3.0 57 57
+ 0.399 2 3 cbr 1000 ------- 2 1.0 3.0 57 57
- 0.399 2 3 cbr 1000 ------- 2 1.0 3.0 57 57
+ 0.4 1 2 cbr 1000 ------- 2 1.0 3.0 60 60
- 0.4 1 2 cbr 1000 ------- 2 1.0 3.0 60 60
r 0.401909 2 3 cbr 1000 ------- 2 1.0 3.0 53 53
r 0.404 1 2 cbr 1000 ------- 2 1.0 3.0 58 58
+ 0.404 2 3 cbr 1000 ------- 2 1.0 3.0 58 58
- 0.404 2 3 cbr 1000 ------- 2 1.0 3.0 58 58
+ 0.405 1 2 cbr 1000 ------- 2 1.0 3.0 61 61
- 0.405 1 2 cbr 1000 ------- 2 1.0 3.0 61 61
r 0.406909 2 3 cbr 1000 ------- 2 1.0 3.0 54 54
r 0.409 1 2 cbr 1000 ------- 2 1.0 3.0 59 59
+ 0.409 2 3 cbr 1000 ------- 2 1.0 3.0 59 59
- 0.409 2 3 cbr 1000 ------- 2 1.0 3.0 59 59
+ 0.41 1 2 cbr 1000 ------- 2 1.0 3.0 62 62
- 0.41 1 2 cbr 1000 ------- 2 1.0 3.0 62 62
r 0.411909 2 3 cbr 1000 ------- 2 1.0 3.0 55 55
r 0.414 1 2 cbr 1000 ------- 2 1.0 3.0 60 60
+ 0.414 2 3 cbr 1000 ------- 2 1.0 3.0 60 60
- 0.414 2 3 cbr 1000 ------- 2 1.0 3.0 60 60
+ 0.415 1 2 cbr 1000 ------- 2 1.0 3.0 63 63
- 0.415 1 2 cbr 1000 ------- 2 1.0 3.0 63 63
r 0.416909 2 3 cbr 1000 ------- 2 1.0 3.0 56 56
r 0.419 1 2 cbr 1000 ------- 2 1.0 3.0 61 61
+ 0.419 2 3 cbr 1000 ------- 2 1.0 3.0 61 61
- 0.419 2 3 cbr 1000 ------- 2 1.0 3.0 61 61
+ 0.42 1 2 cbr 1000 ------- 2 1.0 3.0 64 64
- 0.42 1 2 cbr 1000 ------- 2 1.0 3.0 64 64
r 0.421909 2 3 cbr 1000 ------- 2 1.0 3.0 57 57
r 0.424 1 2 cbr 1000 ------- 2 1.0 3.0 62 62
+ 0.424 2 3 cbr 1000 ------- 2 1.0 3.0 62 62
- 0.424 2 3 cbr 1000 ------- 2 1.0 3.0 62 62
+ 0.425 1 2 cbr 1000 ------- 2 1.0 3.0 65 65
- 0.425 1 2 cbr 1000 ------- 2 1.0 3.0 65 65
r 0.426909 2 3 cbr 1000 ------- 2 1.0 3.0 58 58
r 0.429 1 2 cbr 1000 ------- 2 1.0 3.0 63 63
+ 0.429 2 3 cbr 1000 ------- 2 1.0 3.0 63 63
- 0.429 2 3 cbr 1000 ------- 2 1.0 3.0 63 63
+ 0.43 1 2 cbr 1000 ------- 2 1.0 3.0 66 66
- 0.43 1 2 cbr 1000 ------- 2 1.0 3.0 66 66
r 0.431909 2 3 cbr 1000 ------- 2 1.0 3.0 59 59
r 0.434 1 2 cbr 1000 ------- 2 1.0 3.0 64 64
+ 0.434 2 3 cbr 1000 ------- 2 1.0 3.0 64 64
- 0.434 2 3 cbr 1000 ------- 2 1.0 3.0 64 64
+ 0.435 1 2 cbr 1000 ------- 2 1.0 3.0 67 67
- 0.435 1 2 cbr 1000 ------- 2 1.0 3.0 67 67
r 0.436909 2 3 cbr 1000 ------- 2 1.0 3.0 60 60
r 0.439 1 2 cbr 1000 ------- 2 1.0 3.0 65 65
+ 0.439 2 3 cbr 1000 ------- 2 1.0 3.0 65 65
- 0.439 2 3 cbr 1000 ------- 2 1.0 3.0 65 65
+ 0.44 1 2 cbr 1000 ------- 2 1.0 3.0 68 68
- 0.44 1 2 cbr 1000 ------- 2 1.0 3.0 68 68
r 0.441909 2 3 cbr 1000 ------- 2 1.0 3.0 61 61
r 0.444 1 2 cbr 1000 ------- 2 1.0 3.0 66 66
+ 0.444 2 3 cbr 1000 ------- 2 1.0 3.0 66 66
- 0.444 2 3 cbr 1000 ------- 2 1.0 3.0 66 66
+ 0.445 1 2 cbr 1000 ------- 2 1.0 3.0 69 69
- 0.445 1 2 cbr 1000 ------- 2 1.0 3.0 69 69
r 0.446909 2 3 cbr 1000 ------- 2 1.0 3.0 62 62
r 0.449 1 2 cbr 1000 ------- 2 1.0 3.0 67 67
+ 0.449 2 3 cbr 1000 ------- 2 1.0 3.0 67 67
- 0.449 2 3 cbr 1000 ------- 2 1.0 3.0 67 67
+ 0.45 1 2 cbr 1000 ------- 2 1.0 3.0 70 70
- 0.45 1 2 cbr 1000 ------- 2 1.0 3.0 70 70
r 0.451909 2 3 cbr 1000 ------- 2 1.0 3.0 63 63
r 0.454 1 2 cbr 1000 ------- 2 1.0 3.0 68 68
+ 0.454 2 3 cbr 1000 ------- 2 1.0 3.0 68 68
- 0.454 2 3 cbr 1000 ------- 2 1.0 3.0 68 68
+ 0.455 1 2 cbr 1000 ------- 2 1.0 3.0 71 71
- 0.455 1 2 cbr 1000 ------- 2 1.0 3.0 71 71
r 0.456909 2 3 cbr 1000 ------- 2 1.0 3.0 64 64
r 0.459 1 2 cbr 1000 ------- 2 1.0 3.0 69 69
+ 0.459 2 3 cbr 1000 ------- 2 1.0 3.0 69 69
- 0.459 2 3 cbr 1000 ------- 2 1.0 3.0 69 69
+ 0.46 1 2 cbr 1000 ------- 2 1.0 3.0 72 72
- 0.46 1 2 cbr 1000 ------- 2 1.0 3.0 72 72
r 0.461909 2 3 cbr 1000 ------- 2 1.0 3.0 65 65
r 0.464 1 2 cbr 1000 ------- 2 1.0 3.0 70 70
+ 0.464 2 3 cbr 1000 ------- 2 1.0 3.0 70 70
- 0.464 2 3 cbr 1000 ------- 2 1.0 3.0 70 70
+ 0.465 1 2 cbr 1000 ------- 2 1.0 3.0 73 73
- 0.465 1 2 cbr 1000 ------- 2 1.0 3.0 73 73
r 0.466909 2 3 cbr 1000 ------- 2 1.0 3.0 66 66
r 0.469 1 2 cbr 1000 ------- 2 1.0 3.0 71 71
+ 0.469 2 3 cbr 1000 ------- 2 1.0 3.0 71 71
- 0.469 2 3 cbr 1000 ------- 2 1.0 3.0 71 71
+ 0.47 1 2 cbr 1000 ------- 2 1.0 3.0 74 74
- 0.47 1 2 cbr 1000 ------- 2 1.0 3.0 74 74
r 0.471909 2 3 cbr 1000 ------- 2 1.0 3.0 67 67
r 0.474 1 2 cbr 1000 ------- 2 1.0 3.0 72 72
+ 0.474 2 3 cbr 1000 ------- 2 1.0 3.0 72 72
- 0.474 2 3 cbr 1000 ------- 2 1.0 3.0 72 72
+ 0.475 1 2 cbr 1000 ------- 2 1.0 3.0 75 75
- 0.475 1 2 cbr 1000 ------- 2 1.0 3.0 75 75
r 0.476909 2 3 cbr 1000 ------- 2 1.0 3.0 68 68
r 0.479 1 2 cbr 1000 ------- 2 1.0 3.0 73 73
+ 0.479 2 3 cbr 1000 ------- 2 1.0 3.0 73 73
- 0.479 2 3 cbr 1000 ------- 2 1.0 3.0 73 73
+ 0.48 1 2 cbr 1000 ------- 2 1.0 3.0 76 76
- 0.48 1 2 cbr 1000 ------- 2 1.0 3.0 76 76
r 0.481909 2 3 cbr 1000 ------- 2 1.0 3.0 69 69
r 0.484 1 2 cbr 1000 ------- 2 1.0 3.0 74 74
+ 0.484 2 3 cbr 1000 ------- 2 1.0 3.0 74 74
- 0.484 2 3 cbr 1000 ------- 2 1.0 3.0 74 74
+ 0.485 1 2 cbr 1000 ------- 2 1.0 3.0 77 77
- 0.485 1 2 cbr 1000 ------- 2 1.0 3.0 77 77
r 0.486909 2 3 cbr 1000 ------- 2 1.0 3.0 70 70
r 0.489 1 2 cbr 1000 ------- 2 1.0 3.0 75 75
+ 0.489 2 3 cbr 1000 ------- 2 1.0 3.0 75 75
- 0.489 2 3 cbr 1000 ------- 2 1.0 3.0 75 75
+ 0.49 1 2 cbr 1000 ------- 2 1.0 3.0 78 78
- 0.49 1 2 cbr 1000 ------- 2 1.0 3.0 78 78
r 0.491909 2 3 cbr 1000 ------- 2 1.0 3.0 71 71
r 0.494 1 2 cbr 1000 ------- 2 1.0 3.0 76 76
+ 0.494 2 3 cbr 1000 ------- 2 1.0 3.0 76 76
- 0.494 2 3 cbr 1000 ------- 2 1.0 3.0 76 76
+ 0.495 1 2 cbr 1000 ------- 2 1.0 3.0 79 79
- 0.495 1 2 cbr 1000 ------- 2 1.0 3.0 79 79
r 0.496909 2 3 cbr 1000 ------- 2 1.0 3.0 72 72
r 0.499 1 2 cbr 1000 ------- 2 1.0 3.0 77 77
+ 0.499 2 3 cbr 1000 ------- 2 1.0 3.0 77 77
- 0.499 2 3 cbr 1000 ------- 2 1.0 3.0 77 77
+ 0.5 1 2 cbr 1000 ------- 2 1.0 3.0 80 80
- 0.5 1 2 cbr 1000 ------- 2 1.0 3.0 80 80
r 0.501909 2 3 cbr 1000 ------- 2 1.0 3.0 73 73
r 0.504 1 2 cbr 1000 ------- 2 1.0 3.0 78 78
+ 0.504 2 3 cbr 1000 ------- 2 1.0 3.0 78 78
- 0.504 2 3 cbr 1000 ------- 2 1.0 3.0 78 78
+ 0.505 1 2 cbr 1000 ------- 2 1.0 3.0 81 81
- 0.505 1 2 cbr 1000 ------- 2 1.0 3.0 81 81
r 0.506909 2 3 cbr 1000 ------- 2 1.0 3.0 74 74
r 0.509 1 2 cbr 1000 ------- 2 1.0 3.0 79 79
+ 0.509 2 3 cbr 1000 ------- 2 1.0 3.0 79 79
- 0.509 2 3 cbr 1000 ------- 2 1.0 3.0 79 79
+ 0.51 1 2 cbr 1000 ------- 2 1.0 3.0 82 82
- 0.51 1 2 cbr 1000 ------- 2 1.0 3.0 82 82
r 0.511909 2 3 cbr 1000 ------- 2 1.0 3.0 75 75
r 0.514 1 2 cbr 1000 ------- 2 1.0 3.0 80 80
+ 0.514 2 3 cbr 1000 ------- 2 1.0 3.0 80 80
- 0.514 2 3 cbr 1000 ------- 2 1.0 3.0 80 80
+ 0.515 1 2 cbr 1000 ------- 2 1.0 3.0 83 83
- 0.515 1 2 cbr 1000 ------- 2 1.0 3.0 83 83
r 0.516909 2 3 cbr 1000 ------- 2 1.0 3.0 76 76
r 0.519 1 2 cbr 1000 ------- 2 1.0 3.0 81 81
+ 0.519 2 3 cbr 1000 ------- 2 1.0 3.0 81 81
- 0.519 2 3 cbr 1000 ------- 2 1.0 3.0 81 81
+ 0.52 1 2 cbr 1000 ------- 2 1.0 3.0 84 84
- 0.52 1 2 cbr 1000 ------- 2 1.0 3.0 84 84
r 0.521909 2 3 cbr 1000 ------- 2 1.0 3.0 77 77
r 0.524 1 2 cbr 1000 ------- 2 1.0 3.0 82 82
+ 0.524 2 3 cbr 1000 ------- 2 1.0 3.0 82 82
- 0.524 2 3 cbr 1000 ------- 2 1.0 3.0 82 82
+ 0.525 1 2 cbr 1000 ------- 2 1.0 3.0 85 85
- 0.525 1 2 cbr 1000 ------- 2 1.0 3.0 85 85
r 0.526909 2 3 cbr 1000 ------- 2 1.0 3.0 78 78
r 0.529 1 2 cbr 1000 ------- 2 1.0 3.0 83 83
+ 0.529 2 3 cbr 1000 ------- 2 1.0 3.0 83 83
- 0.529 2 3 cbr 1000 ------- 2 1.0 3.0 83 83
+ 0.53 1 2 cbr 1000 ------- 2 1.0 3.0 86 86
- 0.53 1 2 cbr 1000 ------- 2 1.0 3.0 86 86
r 0.531909 2 3 cbr 1000 ------- 2 1.0 3.0 79 79
r 0.534 1 2 cbr 1000 ------- 2 1.0 3.0 84 84
+ 0.534 2 3 cbr 1000 ------- 2 1.0 3.0 84 84
- 0.534 2 3 cbr 1000 ------- 2 1.0 3.0 84 84
+ 0.535 1 2 cbr 1000 ------- 2 1.0 3.0 87 87
- 0.535 1 2 cbr 1000 ------- 2 1.0 3.0 87 87
r 0.536909 2 3 cbr 1000 ------- 2 1.0 3.0 80 80
r 0.539 1 2 cbr 1000 ------- 2 1.0 3.0 85 85
+ 0.539 2 3 cbr 1000 ------- 2 1.0 3.0 85 85
- 0.539 2 3 cbr 1000 ------- 2 1.0 3.0 85 85
+ 0.54 1 2 cbr 1000 ------- 2 1.0 3.0 88 88
- 0.54 1 2 cbr 1000 ------- 2 1.0 3.0 88 88
r 0.541909 2 3 cbr 1000 ------- 2 1.0 3.0 81 81
r 0.544 1 2 cbr 1000 ------- 2 1.0 3.0 86 86
+ 0.544 2 3 cbr 1000 ------- 2 1.0 3.0 86 86
- 0.544 2 3 cbr 1000 ------- 2 1.0 3.0 86 86
+ 0.545 1 2 cbr 1000 ------- 2 1.0 3.0 89 89
- 0.545 1 2 cbr 1000 ------- 2 1.0 3.0 89 89
r 0.546909 2 3 cbr 1000 ------- 2 1.0 3.0 82 82
r 0.549 1 2 cbr 1000 ------- 2 1.0 3.0 87 87
+ 0.549 2 3 cbr 1000 ------- 2 1.0 3.0 87 87
- 0.549 2 3 cbr 1000 ------- 2 1.0 3.0 87 87
+ 0.55 1 2 cbr 1000 ------- 2 1.0 3.0 90 90
- 0.55 1 2 cbr 1000 ------- 2 1.0 3.0 90 90
r 0.551909 2 3 cbr 1000 ------- 2 1.0 3.0 83 83
r 0.554 1 2 cbr 1000 ------- 2 1.0 3.0 88 88
+ 0.554 2 3 cbr 1000 ------- 2 1.0 3.0 88 88
- 0.554 2 3 cbr 1000 ------- 2 1.0 3.0 88 88
+ 0.555 1 2 cbr 1000 ------- 2 1.0 3.0 91 91
- 0.555 1 2 cbr 1000 ------- 2 1.0 3.0 91 91
r 0.556909 2 3 cbr 1000 ------- 2 1.0 3.0 84 84
r 0.559 1 2 cbr 1000 ------- 2 1.0 3.0 89 89
+ 0.559 2 3 cbr 1000 ------- 2 1.0 3.0 89 89
- 0.559 2 3 cbr 1000 ------- 2 1.0 3.0 89 89
+ 0.56 1 2 cbr 1000 ------- 2 1.0 3.0 92 92
- 0.56 1 2 cbr 1000 ------- 2 1.0 3.0 92 92
r 0.561909 2 3 cbr 1000 ------- 2 1.0 3.0 85 85
r 0.564 1 2 cbr 1000 ------- 2 1.0 3.0 90 90
+ 0.564 2 3 cbr 1000 ------- 2 1.0 3.0 90 90
- 0.564 2 3 cbr 1000 ------- 2 1.0 3.0 90 90
+ 0.565 1 2 cbr 1000 ------- 2 1.0 3.0 93 93
- 0.565 1 2 cbr 1000 ------- 2 1.0 3.0 93 93
r 0.566909 2 3 cbr 1000 ------- 2 1.0 3.0 86 86
r 0.569 1 2 cbr 1000 ------- 2 1.0 3.0 91 91
+ 0.569 2 3 cbr 1000 ------- 2 1.0 3.0 91 91
- 0.569 2 3 cbr 1000 ------- 2 1.0 3.0 91 91
+ 0.57 1 2 cbr 1000 ------- 2 1.0 3.0 94 94
- 0.57 1 2 cbr 1000 ------- 2 1.0 3.0 94 94
r 0.571909 2 3 cbr 1000 ------- 2 1.0 3.0 87 87
r 0.574 1 2 cbr 1000 ------- 2 1.0 3.0 92 92
+ 0.574 2 3 cbr 1000 ------- 2 1.0 3.0 92 92
- 0.574 2 3 cbr 1000 ------- 2 1.0 3.0 92 92
+ 0.575 1 2 cbr 1000 ------- 2 1.0 3.0 95 95
- 0.575 1 2 cbr 1000 ------- 2 1.0 3.0 95 95
r 0.576909 2 3 cbr 1000 ------- 2 1.0 3.0 88 88
r 0.579 1 2 cbr 1000 ------- 2 1.0 3.0 93 93
+ 0.579 2 3 cbr 1000 ------- 2 1.0 3.0 93 93
- 0.579 2 3 cbr 1000 ------- 2 1.0 3.0 93 93
+ 0.58 1 2 cbr 1000 ------- 2 1.0 3.0 96 96
- 0.58 1 2 cbr 1000 ------- 2 1.0 3.0 96 96
r 0.581909 2 3 cbr 1000 ------- 2 1.0 3.0 89 89
r 0.584 1 2 cbr 1000 ------- 2 1.0 3.0 94 94
+ 0.584 2 3 cbr 1000 ------- 2 1.0 3.0 94 94
- 0.584 2 3 cbr 1000 ------- 2 1.0 3.0 94 94
+ 0.585 1 2 cbr 1000 ------- 2 1.0 3.0 97 97
- 0.585 1 2 cbr 1000 ------- 2 1.0 3.0 97 97
r 0.586909 2 3 cbr 1000 ------- 2 1.0 3.0 90 90
r 0.589 1 2 cbr 1000 ------- 2 1.0 3.0 95 95
+ 0.589 2 3 cbr 1000 ------- 2 1.0 3.0 95 95
- 0.589 2 3 cbr 1000 ------- 2 1.0 3.0 95 95
+ 0.59 1 2 cbr 1000 ------- 2 1.0 3.0 98 98
- 0.59 1 2 cbr 1000 ------- 2 1.0 3.0 98 98
r 0.591909 2 3 cbr 1000 ------- 2 1.0 3.0 91 91
r 0.594 1 2 cbr 1000 ------- 2 1.0 3.0 96 96
+ 0.594 2 3 cbr 1000 ------- 2 1.0 3.0 96 96
- 0.594 2 3 cbr 1000 ------- 2 1.0 3.0 96 96
+ 0.595 1 2 cbr 1000 ------- 2 1.0 3.0 99 99
- 0.595 1 2 cbr 1000 ------- 2 1.0 3.0 99 99
r 0.596909 2 3 cbr 1000 ------- 2 1.0 3.0 92 92
r 0.599 1 2 cbr 1000 ------- 2 1.0 3.0 97 97
+ 0.599 2 3 cbr 1000 ------- 2 1.0 3.0 97 97
- 0.599 2 3 cbr 1000 ------- 2 1.0 3.0 97 97
+ 0.6 1 2 cbr 1000 ------- 2 1.0 3.0 100 100
- 0.6 1 2 cbr 1000 ------- 2 1.0 3.0 100 100
r 0.601909 2 3 cbr 1000 ------- 2 1.0 3.0 93 93
r 0.604 1 2 cbr 1000 ------- 2 1.0 3.0 98 98
+ 0.604 2 3 cbr 1000 ------- 2 1.0 3.0 98 98
- 0.604 2 3 cbr 1000 ------- 2 1.0 3.0 98 98
+ 0.605 1 2 cbr 1000 ------- 2 1.0 3.0 101 101
- 0.605 1 2 cbr 1000 ------- 2 1.0 3.0 101 101
r 0.606909 2 3 cbr 1000 ------- 2 1.0 3.0 94 94
r 0.609 1 2 cbr 1000 ------- 2 1.0 3.0 99 99
+ 0.609 2 3 cbr 1000 ------- 2 1.0 3.0 99 99
- 0.609 2 3 cbr 1000 ------- 2 1.0 3.0 99 99
+ 0.61 1 2 cbr 1000 ------- 2 1.0 3.0 102 102
- 0.61 1 2 cbr 1000 ------- 2 1.0 3.0 102 102
r 0.611909 2 3 cbr 1000 ------- 2 1.0 3.0 95 95
r 0.614 1 2 cbr 1000 ------- 2 1.0 3.0 100 100
+ 0.614 2 3 cbr 1000 ------- 2 1.0 3.0 100 100
- 0.614 2 3 cbr 1000 ------- 2 1.0 3.0 100 100
+ 0.615 1 2 cbr 1000 ------- 2 1.0 3.0 103 103
- 0.615 1 2 cbr 1000 ------- 2 1.0 3.0 103 103
r 0.616909 2 3 cbr 1000 ------- 2 1.0 3.0 96 96
r 0.619 1 2 cbr 1000 ------- 2 1.0 3.0 101 101
+ 0.619 2 3 cbr 1000 ------- 2 1.0 3.0 101 101
- 0.619 2 3 cbr 1000 ------- 2 1.0 3.0 101 101
+ 0.62 1 2 cbr 1000 ------- 2 1.0 3.0 104 104
- 0.62 1 2 cbr 1000 ------- 2 1.0 3.0 104 104
r 0.621909 2 3 cbr 1000 ------- 2 1.0 3.0 97 97
r 0.624 1 2 cbr 1000 ------- 2 1.0 3.0 102 102
+ 0.624 2 3 cbr 1000 ------- 2 1.0 3.0 102 102
- 0.624 2 3 cbr 1000 ------- 2 1.0 3.0 102 102
+ 0.625 1 2 cbr 1000 ------- 2 1.0 3.0 105 105
- 0.625 1 2 cbr 1000 ------- 2 1.0 3.0 105 105
r 0.626909 2 3 cbr 1000 ------- 2 1.0 3.0 98 98
r 0.629 1 2 cbr 1000 ------- 2 1.0 3.0 103 103
+ 0.629 2 3 cbr 1000 ------- 2 1.0 3.0 103 103
- 0.629 2 3 cbr 1000 ------- 2 1.0 3.0 103 103
+ 0.63 1 2 cbr 1000 ------- 2 1.0 3.0 106 106
- 0.63 1 2 cbr 1000 ------- 2 1.0 3.0 106 106
r 0.631909 2 3 cbr 1000 ------- 2 1.0 3.0 99 99
r 0.634 1 2 cbr 1000 ------- 2 1.0 3.0 104 104
+ 0.634 2 3 cbr 1000 ------- 2 1.0 3.0 104 104
- 0.634 2 3 cbr 1000 ------- 2 1.0 3.0 104 104
+ 0.635 1 2 cbr 1000 ------- 2 1.0 3.0 107 107
- 0.635 1 2 cbr 1000 ------- 2 1.0 3.0 107 107
r 0.636909 2 3 cbr 1000 ------- 2 1.0 3.0 100 100
r 0.639 1 2 cbr 1000 ------- 2 1.0 3.0 105 105
+ 0.639 2 3 cbr 1000 ------- 2 1.0 3.0 105 105
- 0.639 2 3 cbr 1000 ------- 2 1.0 3.0 105 105
+ 0.64 1 2 cbr 1000 ------- 2 1.0 3.0 108 108
- 0.64 1 2 cbr 1000 ------- 2 1.0 3.0 108 108
r 0.641909 2 3 cbr 1000 ------- 2 1.0 3.0 101 101
r 0.644 1 2 cbr 1000 ------- 2 1.0 3.0 106 106
+ 0.644 2 3 cbr 1000 ------- 2 1.0 3.0 106 106
- 0.644 2 3 cbr 1000 ------- 2 1.0 3.0 106 106
+ 0.645 1 2 cbr 1000 ------- 2 1.0 3.0 109 109
- 0.645 1 2 cbr 1000 ------- 2 1.0 3.0 109 109
r 0.646909 2 3 cbr 1000 ------- 2 1.0 3.0 102 102
r 0.649 1 2 cbr 1000 ------- 2 1.0 3.0 107 107
+ 0.649 2 3 cbr 1000 ------- 2 1.0 3.0 107 107
- 0.649 2 3 cbr 1000 ------- 2 1.0 3.0 107 107
+ 0.65 1 2 cbr 1000 ------- 2 1.0 3.0 110 110
- 0.65 1 2 cbr 1000 ------- 2 1.0 3.0 110 110
r 0.651909 2 3 cbr 1000 ------- 2 1.0 3.0 103 103
r 0.654 1 2 cbr 1000 ------- 2 1.0 3.0 108 108
+ 0.654 2 3 cbr 1000 ------- 2 1.0 3.0 108 108
- 0.654 2 3 cbr 1000 ------- 2 1.0 3.0 108 108
+ 0.655 1 2 cbr 1000 ------- 2 1.0 3.0 111 111
- 0.655 1 2 cbr 1000 ------- 2 1.0 3.0 111 111
r 0.656909 2 3 cbr 1000 ------- 2 1.0 3.0 104 104
r 0.659 1 2 cbr 1000 ------- 2 1.0 3.0 109 109
+ 0.659 2 3 cbr 1000 ------- 2 1.0 3.0 109 109
- 0.659 2 3 cbr 1000 ------- 2 1.0 3.0 109 109
+ 0.66 1 2 cbr 1000 ------- 2 1.0 3.0 112 112
- 0.66 1 2 cbr 1000 ------- 2 1.0 3.0 112 112
r 0.661909 2 3 cbr 1000 ------- 2 1.0 3.0 105 105