+ 0.1 0 1 cbr 500 ------- 1 0.0 2.0 0 0
- 0.1 0 1 cbr 500 ------- 1 0.0 2.0 0 0
+ 0.105 0 1 cbr 500 ------- 1 0.0 2.0 1 1
- 0.105 0 1 cbr 500 ------- 1 0.0 2.0 1 1
+ 0.11 0 1 cbr 500 ------- 1 0.0 2.0 2 2
- 0.11 0 1 cbr 500 ------- 1 0.0 2.0 2 2
r 0.112 0 1 cbr 500 ------- 1 0.0 2.0 0 0
+ 0.112 1 2 cbr 500 ------- 1 0.0 2.0 0 0
- 0.112 1 2 cbr 500 ------- 1 0.0 2.0 0 0
+ 0.115 0 1 cbr 500 ------- 1 0.0 2.0 3 3
- 0.115 0 1 cbr 500 ------- 1 0.0 2.0 3 3
r 0.117 0 1 cbr 500 ------- 1 0.0 2.0 1 1
+ 0.117 1 2 cbr 500 ------- 1 0.0 2.0 1 1
- 0.117 1 2 cbr 500 ------- 1 0.0 2.0 1 1
+ 0.12 0 1 cbr 500 ------- 1 0.0 2.0 4 4
- 0.12 0 1 cbr 500 ------- 1 0.0 2.0 4 4
r 0.122 0 1 cbr 500 ------- 1 0.0 2.0 2 2
+ 0.122 1 2 cbr 500 ------- 1 0.0 2.0 2 2
- 0.122 1 2 cbr 500 ------- 1 0.0 2.0 2 2
+ 0.125 0 1 cbr 500 ------- 1 0.0 2.0 5 5
- 0.125 0 1 cbr 500 ------- 1 0.0 2.0 5 5
r 0.127 0 1 cbr 500 ------- 1 0.0 2.0 3 3
+ 0.127 1 2 cbr 500 ------- 1 0.0 2.0 3 3
- 0.127 1 2 cbr 500 ------- 1 0.0 2.0 3 3
+ 0.13 0 1 cbr 500 ------- 1 0.0 2.0 6 6
- 0.13 0 1 cbr 500 ------- 1 0.0 2.0 6 6
r 0.132 0 1 cbr 500 ------- 1 0.0 2.0 4 4
+ 0.132 1 2 cbr 500 ------- 1 0.0 2.0 4 4
- 0.132 1 2 cbr 500 ------- 1 0.0 2.0 4 4
r 0.134286 1 2 cbr 500 ------- 1 0.0 2.0 0 0
+ 0.135 0 1 cbr 500 ------- 1 0.0 2.0 7 7
- 0.135 0 1 cbr 500 ------- 1 0.0 2.0 7 7
r 0.137 0 1 cbr 500 ------- 1 0.0 2.0 5 5
+ 0.137 1 2 cbr 500 ------- 1 0.0 2.0 5 5
- 0.137 1 2 cbr 500 ------- 1 0.0 2.0 5 5
r 0.139286 1 2 cbr 500 ------- 1 0.0 2.0 1 1
+ 0.14 0 1 cbr 500 ------- 1 0.0 2.0 8 8
- 0.14 0 1 cbr 500 ------- 1 0.0 2.0 8 8
r 0.142 0 1 cbr 500 ------- 1 0.0 2.0 6 6
+ 0.142 1 2 cbr 500 ------- 1 0.0 2.0 6 6
- 0.142 1 2 cbr 500 ------- 1 0.0 2.0 6 6
r 0.144286 1 2 cbr 500 ------- 1 0.0 2.0 2 2
+ 0.145 0 1 cbr 500 ------- 1 0.0 2.0 9 9
- 0.145 0 1 cbr 500 ------- 1 0.0 2.0 9 9
r 0.147 0 1 cbr 500 ------- 1 0.0 2.0 7 7
+ 0.147 1 2 cbr 500 ------- 1 0.0 2.0 7 7
- 0.147 1 2 cbr 500 ------- 1 0.0 2.0 7 7
r 0.149286 1 2 cbr 500 ------- 1 0.0 2.0 3 3
+ 0.15 0 1 cbr 500 ------- 1 0.0 2.0 10 10
- 0.15 0 1 cbr 500 ------- 1 0.0 2.0 10 10
r 0.152 0 1 cbr 500 ------- 1 0.0 2.0 8 8
+ 0.152 1 2 cbr 500 ------- 1 0.0 2.0 8 8
- 0.152 1 2 cbr 500 ------- 1 0.0 2.0 8 8
r 0.154286 1 2 cbr 500 ------- 1 0.0 2.0 4 4
+ 0.155 0 1 cbr 500 ------- 1 0.0 2.0 11 11
- 0.155 0 1 cbr 500 ------- 1 0.0 2.0 11 11
r 0.157 0 1 cbr 500 ------- 1 0.0 2.0 9 9
+ 0.157 1 2 cbr 500 ------- 1 0.0 2.0 9 9
- 0.157 1 2 cbr 500 ------- 1 0.0 2.0 9 9
r 0.159286 1 2 cbr 500 ------- 1 0.0 2.0 5 5
+ 0.16 0 1 cbr 500 ------- 1 0.0 2.0 12 12
- 0.16 0 1 cbr 500 ------- 1 0.0 2.0 12 12
r 0.162 0 1 cbr 500 ------- 1 0.0 2.0 10 10
+ 0.162 1 2 cbr 500 ------- 1 0.0 2.0 10 10
- 0.162 1 2 cbr 500 ------- 1 0.0 2.0 10 10
r 0.164286 1 2 cbr 500 ------- 1 0.0 2.0 6 6
+ 0.165 0 1 cbr 500 ------- 1 0.0 2.0 13 13
- 0.165 0 1 cbr 500 ------- 1 0.0 2.0 13 13
r 0.167 0 1 cbr 500 ------- 1 0.0 2.0 11 11
+ 0.167 1 2 cbr 500 ------- 1 0.0 2.0 11 11
- 0.167 1 2 cbr 500 ------- 1 0.0 2.0 11 11
r 0.169286 1 2 cbr 500 ------- 1 0.0 2.0 7 7
+ 0.17 0 1 cbr 500 ------- 1 0.0 2.0 14 14
- 0.17 0 1 cbr 500 ------- 1 0.0 2.0 14 14
r 0.172 0 1 cbr 500 ------- 1 0.0 2.0 12 12
+ 0.172 1 2 cbr 500 ------- 1 0.0 2.0 12 12
- 0.172 1 2 cbr 500 ------- 1 0.0 2.0 12 12
r 0.174286 1 2 cbr 500 ------- 1 0.0 2.0 8 8
+ 0.175 0 1 cbr 500 ------- 1 0.0 2.0 15 15
- 0.175 0 1 cbr 500 ------- 1 0.0 2.0 15 15
r 0.177 0 1 cbr 500 ------- 1 0.0 2.0 13 13
+ 0.177 1 2 cbr 500 ------- 1 0.0 2.0 13 13
- 0.177 1 2 cbr 500 ------- 1 0.0 2.0 13 13
r 0.179286 1 2 cbr 500 ------- 1 0.0 2.0 9 9
+ 0.18 0 1 cbr 500 ------- 1 0.0 2.0 16 16
- 0.18 0 1 cbr 500 ------- 1 0.0 2.0 16 16
r 0.182 0 1 cbr 500 ------- 1 0.0 2.0 14 14
+ 0.182 1 2 cbr 500 ------- 1 0.0 2.0 14 14
- 0.182 1 2 cbr 500 ------- 1 0.0 2.0 14 14
r 0.184286 1 2 cbr 500 ------- 1 0.0 2.0 10 10
+ 0.185 0 1 cbr 500 ------- 1 0.0 2.0 17 17
- 0.185 0 1 cbr 500 ------- 1 0.0 2.0 17 17
r 0.187 0 1 cbr 500 ------- 1 0.0 2.0 15 15
+ 0.187 1 2 cbr 500 ------- 1 0.0 2.0 15 15
- 0.187 1 2 cbr 500 ------- 1 0.0 2.0 15 15
r 0.189286 1 2 cbr 500 ------- 1 0.0 2.0 11 11
+ 0.19 0 1 cbr 500 ------- 1 0.0 2.0 18 18
- 0.19 0 1 cbr 500 ------- 1 0.0 2.0 18 18
r 0.192 0 1 cbr 500 ------- 1 0.0 2.0 16 16
+ 0.192 1 2 cbr 500 ------- 1 0.0 2.0 16 16
- 0.192 1 2 cbr 500 ------- 1 0.0 2.0 16 16
r 0.194286 1 2 cbr 500 ------- 1 0.0 2.0 12 12
+ 0.195 0 1 cbr 500 ------- 1 0.0 2.0 19 19
- 0.195 0 1 cbr 500 ------- 1 0.0 2.0 19 19
r 0.197 0 1 cbr 500 ------- 1 0.0 2.0 17 17
+ 0.197 1 2 cbr 500 ------- 1 0.0 2.0 17 17
- 0.197 1 2 cbr 500 ------- 1 0.0 2.0 17 17
r 0.199286 1 2 cbr 500 ------- 1 0.0 2.0 13 13
+ 0.2 0 1 cbr 500 ------- 1 0.0 2.0 20 20
- 0.2 0 1 cbr 500 ------- 1 0.0 2.0 20 20
r 0.202 0 1 cbr 500 ------- 1 0.0 2.0 18 18
+ 0.202 1 2 cbr 500 ------- 1 0.0 2.0 18 18
- 0.202 1 2 cbr 500 ------- 1 0.0 2.0 18 18
r 0.204286 1 2 cbr 500 ------- 1 0.0 2.0 14 14
+ 0.205 0 1 cbr 500 ------- 1 0.0 2.0 21 21
- 0.205 0 1 cbr 500 ------- 1 0.0 2.0 21 21
r 0.207 0 1 cbr 500 ------- 1 0.0 2.0 19 19
+ 0.207 1 2 cbr 500 ------- 1 0.0 2.0 19 19
- 0.207 1 2 cbr 500 ------- 1 0.0 2.0 19 19
r 0.209286 1 2 cbr 500 ------- 1 0.0 2.0 15 15
+ 0.21 0 1 cbr 500 ------- 1 0.0 2.0 22 22
- 0.21 0 1 cbr 500 ------- 1 0.0 2.0 22 22
r 0.212 0 1 cbr 500 ------- 1 0.0 2.0 20 20
+ 0.212 1 2 cbr 500 ------- 1 0.0 2.0 20 20
- 0.212 1 2 cbr 500 ------- 1 0.0 2.0 20 20
r 0.214286 1 2 cbr 500 ------- 1 0.0 2.0 16 16
+ 0.215 0 1 cbr 500 ------- 1 0.0 2.0 23 23
- 0.215 0 1 cbr 500 ------- 1 0.0 2.0 23 23
r 0.217 0 1 cbr 500 ------- 1 0.0 2.0 21 21
+ 0.217 1 2 cbr 500 ------- 1 0.0 2.0 21 21
- 0.217 1 2 cbr 500 ------- 1 0.0 2.0 21 21
r 0.219286 1 2 cbr 500 ------- 1 0.0 2.0 17 17
+ 0.22 0 1 cbr 500 ------- 1 0.0 2.0 24 24
- 0.22 0 1 cbr 500 ------- 1 0.0 2.0 24 24
r 0.222 0 1 cbr 500 ------- 1 0.0 2.0 22 22
+ 0.222 1 2 cbr 500 ------- 1 0.0 2.0 22 22
- 0.222 1 2 cbr 500 ------- 1 0.0 2.0 22 22
r 0.224286 1 2 cbr 500 ------- 1 0.0 2.0 18 18
+ 0.225 0 1 cbr 500 ------- 1 0.0 2.0 25 25
- 0.225 0 1 cbr 500 ------- 1 0.0 2.0 25 25
r 0.227 0 1 cbr 500 ------- 1 0.0 2.0 23 23
+ 0.227 1 2 cbr 500 ------- 1 0.0 2.0 23 23
- 0.227 1 2 cbr 500 ------- 1 0.0 2.0 23 23
r 0.229286 1 2 cbr 500 ------- 1 0.0 2.0 19 19
+ 0.23 0 1 cbr 500 ------- 1 0.0 2.0 26 26
- 0.23 0 1 cbr 500 ------- 1 0.0 2.0 26 26
r 0.232 0 1 cbr 500 ------- 1 0.0 2.0 24 24
+ 0.232 1 2 cbr 500 ------- 1 0.0 2.0 24 24
- 0.232 1 2 cbr 500 ------- 1 0.0 2.0 24 24
r 0.234286 1 2 cbr 500 ------- 1 0.0 2.0 20 20
+ 0.235 0 1 cbr 500 ------- 1 0.0 2.0 27 27
- 0.235 0 1 cbr 500 ------- 1 0.0 2.0 27 27
r 0.237 0 1 cbr 500 ------- 1 0.0 2.0 25 25
+ 0.237 1 2 cbr 500 ------- 1 0.0 2.0 25 25
- 0.237 1 2 cbr 500 ------- 1 0.0 2.0 25 25
r 0.239286 1 2 cbr 500 ------- 1 0.0 2.0 21 21
+ 0.24 0 1 cbr 500 ------- 1 0.0 2.0 28 28
- 0.24 0 1 cbr 500 ------- 1 0.0 2.0 28 28
r 0.242 0 1 cbr 500 ------- 1 0.0 2.0 26 26
+ 0.242 1 2 cbr 500 ------- 1 0.0 2.0 26 26
- 0.242 1 2 cbr 500 ------- 1 0.0 2.0 26 26
r 0.244286 1 2 cbr 500 ------- 1 0.0 2.0 22 22
+ 0.245 0 1 cbr 500 ------- 1 0.0 2.0 29 29
- 0.245 0 1 cbr 500 ------- 1 0.0 2.0 29 29
r 0.247 0 1 cbr 500 ------- 1 0.0 2.0 27 27
+ 0.247 1 2 cbr 500 ------- 1 0.0 2.0 27 27
- 0.247 1 2 cbr 500 ------- 1 0.0 2.0 27 27
r 0.249286 1 2 cbr 500 ------- 1 0.0 2.0 23 23
+ 0.25 0 1 cbr 500 ------- 1 0.0 2.0 30 30
- 0.25 0 1 cbr 500 ------- 1 0.0 2.0 30 30
r 0.252 0 1 cbr 500 ------- 1 0.0 2.0 28 28
+ 0.252 1 2 cbr 500 ------- 1 0.0 2.0 28 28
- 0.252 1 2 cbr 500 ------- 1 0.0 2.0 28 28
r 0.254286 1 2 cbr 500 ------- 1 0.0 2.0 24 24
+ 0.255 0 1 cbr 500 ------- 1 0.0 2.0 31 31
- 0.255 0 1 cbr 500 ------- 1 0.0 2.0 31 31
r 0.257 0 1 cbr 500 ------- 1 0.0 2.0 29 29
+ 0.257 1 2 cbr 500 ------- 1 0.0 2.0 29 29
- 0.257 1 2 cbr 500 ------- 1 0.0 2.0 29 29
r 0.259286 1 2 cbr 500 ------- 1 0.0 2.0 25 25
+ 0.26 0 1 cbr 500 ------- 1 0.0 2.0 32 32
- 0.26 0 1 cbr 500 ------- 1 0.0 2.0 32 32
r 0.262 0 1 cbr 500 ------- 1 0.0 2.0 30 30
+ 0.262 1 2 cbr 500 ------- 1 0.0 2.0 30 30
- 0.262 1 2 cbr 500 ------- 1 0.0 2.0 30 30
r 0.264286 1 2 cbr 500 ------- 1 0.0 2.0 26 26
+ 0.265 0 1 cbr 500 ------- 1 0.0 2.0 33 33
- 0.265 0 1 cbr 500 ------- 1 0.0 2.0 33 33
r 0.267 0 1 cbr 500 ------- 1 0.0 2.0 31 31
+ 0.267 1 2 cbr 500 ------- 1 0.0 2.0 31 31
- 0.267 1 2 cbr 500 ------- 1 0.0 2.0 31 31
r 0.269286 1 2 cbr 500 ------- 1 0.0 2.0 27 27
+ 0.27 0 1 cbr 500 ------- 1 0.0 2.0 34 34
- 0.27 0 1 cbr 500 ------- 1 0.0 2.0 34 34
r 0.272 0 1 cbr 500 ------- 1 0.0 2.0 32 32
+ 0.272 1 2 cbr 500 ------- 1 0.0 2.0 32 32
- 0.272 1 2 cbr 500 ------- 1 0.0 2.0 32 32
r 0.274286 1 2 cbr 500 ------- 1 0.0 2.0 28 28
+ 0.275 0 1 cbr 500 ------- 1 0.0 2.0 35 35
- 0.275 0 1 cbr 500 ------- 1 0.0 2.0 35 35
r 0.277 0 1 cbr 500 ------- 1 0.0 2.0 33 33
+ 0.277 1 2 cbr 500 ------- 1 0.0 2.0 33 33
- 0.277 1 2 cbr 500 ------- 1 0.0 2.0 33 33
r 0.279286 1 2 cbr 500 ------- 1 0.0 2.0 29 29
+ 0.28 0 1 cbr 500 ------- 1 0.0 2.0 36 36
- 0.28 0 1 cbr 500 ------- 1 0.0 2.0 36 36
r 0.282 0 1 cbr 500 ------- 1 0.0 2.0 34 34
+ 0.282 1 2 cbr 500 ------- 1 0.0 2.0 34 34
- 0.282 1 2 cbr 500 ------- 1 0.0 2.0 34 34
r 0.284286 1 2 cbr 500 ------- 1 0.0 2.0 30 30
+ 0.285 0 1 cbr 500 ------- 1 0.0 2.0 37 37
- 0.285 0 1 cbr 500 ------- 1 0.0 2.0 37 37
r 0.287 0 1 cbr 500 ------- 1 0.0 2.0 35 35
+ 0.287 1 2 cbr 500 ------- 1 0.0 2.0 35 35
- 0.287 1 2 cbr 500 ------- 1 0.0 2.0 35 35
r 0.289286 1 2 cbr 500 ------- 1 0.0 2.0 31 31
+ 0.29 0 1 cbr 500 ------- 1 0.0 2.0 38 38
- 0.29 0 1 cbr 500 ------- 1 0.0 2.0 38 38
r 0.292 0 1 cbr 500 ------- 1 0.0 2.0 36 36
+ 0.292 1 2 cbr 500 ------- 1 0.0 2.0 36 36
- 0.292 1 2 cbr 500 ------- 1 0.0 2.0 36 36
r 0.294286 1 2 cbr 500 ------- 1 0.0 2.0 32 32
+ 0.295 0 1 cbr 500 ------- 1 0.0 2.0 39 39
- 0.295 0 1 cbr 500 ------- 1 0.0 2.0 39 39
r 0.297 0 1 cbr 500 ------- 1 0.0 2.0 37 37
+ 0.297 1 2 cbr 500 ------- 1 0.0 2.0 37 37
- 0.297 1 2 cbr 500 ------- 1 0.0 2.0 37 37
r 0.299286 1 2 cbr 500 ------- 1 0.0 2.0 33 33
+ 0.3 0 1 cbr 500 ------- 1 0.0 2.0 40 40
- 0.3 0 1 cbr 500 ------- 1 0.0 2.0 40 40
r 0.302 0 1 cbr 500 ------- 1 0.0 2.0 38 38
+ 0.302 1 2 cbr 500 ------- 1 0.0 2.0 38 38
- 0.302 1 2 cbr 500 ------- 1 0.0 2.0 38 38
r 0.304286 1 2 cbr 500 ------- 1 0.0 2.0 34 34
+ 0.305 0 1 cbr 500 ------- 1 0.0 2.0 41 41
- 0.305 0 1 cbr 500 ------- 1 0.0 2.0 41 41
r 0.307 0 1 cbr 500 ------- 1 0.0 2.0 39 39
+ 0.307 1 2 cbr 500 ------- 1 0.0 2.0 39 39
- 0.307 1 2 cbr 500 ------- 1 0.0 2.0 39 39
r 0.309286 1 2 cbr 500 ------- 1 0.0 2.0 35 35
+ 0.31 0 1 cbr 500 ------- 1 0.0 2.0 42 42
- 0.31 0 1 cbr 500 ------- 1 0.0 2.0 42 42
r 0.312 0 1 cbr 500 ------- 1 0.0 2.0 40 40
+ 0.312 1 2 cbr 500 ------- 1 0.0 2.0 40 40
- 0.312 1 2 cbr 500 ------- 1 0.0 2.0 40 40
r 0.314286 1 2 cbr 500 ------- 1 0.0 2.0 36 36
+ 0.315 0 1 cbr 500 ------- 1 0.0 2.0 43 43
- 0.315 0 1 cbr 500 ------- 1 0.0 2.0 43 43
r 0.317 0 1 cbr 500 ------- 1 0.0 2.0 41 41
+ 0.317 1 2 cbr 500 ------- 1 0.0 2.0 41 41
- 0.317 1 2 cbr 500 ------- 1 0.0 2.0 41 41
r 0.319286 1 2 cbr 500 ------- 1 0.0 2.0 37 37
+ 0.32 0 1 cbr 500 ------- 1 0.0 2.0 44 44
- 0.32 0 1 cbr 500 ------- 1 0.0 2.0 44 44
r 0.322 0 1 cbr 500 ------- 1 0.0 2.0 42 42
+ 0.322 1 2 cbr 500 ------- 1 0.0 2.0 42 42
- 0.322 1 2 cbr 500 ------- 1 0.0 2.0 42 42
r 0.324286 1 2 cbr 500 ------- 1 0.0 2.0 38 38
+ 0.325 0 1 cbr 500 ------- 1 0.0 2.0 45 45
- 0.325 0 1 cbr 500 ------- 1 0.0 2.0 45 45
r 0.327 0 1 cbr 500 ------- 1 0.0 2.0 43 43
+ 0.327 1 2 cbr 500 ------- 1 0.0 2.0 43 43
- 0.327 1 2 cbr 500 ------- 1 0.0 2.0 43 43
r 0.329286 1 2 cbr 500 ------- 1 0.0 2.0 39 39
+ 0.33 0 1 cbr 500 ------- 1 0.0 2.0 46 46
- 0.33 0 1 cbr 500 ------- 1 0.0 2.0 46 46
r 0.332 0 1 cbr 500 ------- 1 0.0 2.0 44 44
+ 0.332 1 2 cbr 500 ------- 1 0.0 2.0 44 44
- 0.332 1 2 cbr 500 ------- 1 0.0 2.0 44 44
r 0.334286 1 2 cbr 500 ------- 1 0.0 2.0 40 40
+ 0.335 0 1 cbr 500 ------- 1 0.0 2.0 47 47
- 0.335 0 1 cbr 500 ------- 1 0.0 2.0 47 47
r 0.337 0 1 cbr 500 ------- 1 0.0 2.0 45 45
+ 0.337 1 2 cbr 500 ------- 1 0.0 2.0 45 45
- 0.337 1 2 cbr 500 ------- 1 0.0 2.0 45 45
r 0.339286 1 2 cbr 500 ------- 1 0.0 2.0 41 41
+ 0.34 0 1 cbr 500 ------- 1 0.0 2.0 48 48
- 0.34 0 1 cbr 500 ------- 1 0.0 2.0 48 48
r 0.342 0 1 cbr 500 ------- 1 0.0 2.0 46 46
+ 0.342 1 2 cbr 500 ------- 1 0.0 2.0 46 46
- 0.342 1 2 cbr 500 ------- 1 0.0 2.0 46 46
r 0.344286 1 2 cbr 500 ------- 1 0.0 2.0 42 42
+ 0.345 0 1 cbr 500 ------- 1 0.0 2.0 49 49
- 0.345 0 1 cbr 500 ------- 1 0.0 2.0 49 49
r 0.347 0 1 cbr 500 ------- 1 0.0 2.0 47 47
+ 0.347 1 2 cbr 500 ------- 1 0.0 2.0 47 47
- 0.347 1 2 cbr 500 ------- 1 0.0 2.0 47 47
r 0.349286 1 2 cbr 500 ------- 1 0.0 2.0 43 43
+ 0.35 0 1 cbr 500 ------- 1 0.0 2.0 50 50
- 0.35 0 1 cbr 500 ------- 1 0.0 2.0 50 50
r 0.352 0 1 cbr 500 ------- 1 0.0 2.0 48 48
+ 0.352 1 2 cbr 500 ------- 1 0.0 2.0 48 48
- 0.352 1 2 cbr 500 ------- 1 0.0 2.0 48 48
r 0.354286 1 2 cbr 500 ------- 1 0.0 2.0 44 44
+ 0.355 0 1 cbr 500 ------- 1 0.0 2.0 51 51
- 0.355 0 1 cbr 500 ------- 1 0.0 2.0 51 51
r 0.357 0 1 cbr 500 ------- 1 0.0 2.0 49 49
+ 0.357 1 2 cbr 500 ------- 1 0.0 2.0 49 49
- 0.357 1 2 cbr 500 ------- 1 0.0 2.0 49 49
r 0.359286 1 2 cbr 500 ------- 1 0.0 2.0 45 45
+ 0.36 0 1 cbr 500 ------- 1 0.0 2.0 52 52
- 0.36 0 1 cbr 500 ------- 1 0.0 2.0 52 52
r 0.362 0 1 cbr 500 ------- 1 0.0 2.0 50 50
+ 0.362 1 2 cbr 500 ------- 1 0.0 2.0 50 50
- 0.362 1 2 cbr 500 ------- 1 0.0 2.0 50 50
r 0.364286 1 2 cbr 500 ------- 1 0.0 2.0 46 46
+ 0.365 0 1 cbr 500 ------- 1 0.0 2.0 53 53
- 0.365 0 1 cbr 500 ------- 1 0.0 2.0 53 53
r 0.367 0 1 cbr 500 ------- 1 0.0 2.0 51 51
+ 0.367 1 2 cbr 500 ------- 1 0.0 2.0 51 51
- 0.367 1 2 cbr 500 ------- 1 0.0 2.0 51 51
r 0.369286 1 2 cbr 500 ------- 1 0.0 2.0 47 47
+ 0.37 0 1 cbr 500 ------- 1 0.0 2.0 54 54
- 0.37 0 1 cbr 500 ------- 1 0.0 2.0 54 54
r 0.372 0 1 cbr 500 ------- 1 0.0 2.0 52 52
+ 0.372 1 2 cbr 500 ------- 1 0.0 2.0 52 52
- 0.372 1 2 cbr 500 ------- 1 0.0 2.0 52 52
r 0.374286 1 2 cbr 500 ------- 1 0.0 2.0 48 48
+ 0.375 0 1 cbr 500 ------- 1 0.0 2.0 55 55
- 0.375 0 1 cbr 500 ------- 1 0.0 2.0 55 55
r 0.377 0 1 cbr 500 ------- 1 0.0 2.0 53 53
+ 0.377 1 2 cbr 500 ------- 1 0.0 2.0 53 53
- 0.377 1 2 cbr 500 ------- 1 0.0 2.0 53 53
r 0.379286 1 2 cbr 500 ------- 1 0.0 2.0 49 49
+ 0.38 0 1 cbr 500 ------- 1 0.0 2.0 56 56
- 0.38 0 1 cbr 500 ------- 1 0.0 2.0 56 56
r 0.382 0 1 cbr 500 ------- 1 0.0 2.0 54 54
+ 0.382 1 2 cbr 500 ------- 1 0.0 2.0 54 54
- 0.382 1 2 cbr 500 ------- 1 0.0 2.0 54 54
r 0.384286 1 2 cbr 500 ------- 1 0.0 2.0 50 50
+ 0.385 0 1 cbr 500 ------- 1 0.0 2.0 57 57
- 0.385 0 1 cbr 500 ------- 1 0.0 2.0 57 57
r 0.387 0 1 cbr 500 ------- 1 0.0 2.0 55 55
+ 0.387 1 2 cbr 500 ------- 1 0.0 2.0 55 55
- 0.387 1 2 cbr 500 ------- 1 0.0 2.0 55 55
r 0.389286 1 2 cbr 500 ------- 1 0.0 2.0 51 51
+ 0.39 0 1 cbr 500 ------- 1 0.0 2.0 58 58
- 0.39 0 1 cbr 500 ------- 1 0.0 2.0 58 58
r 0.392 0 1 cbr 500 ------- 1 0.0 2.0 56 56
+ 0.392 1 2 cbr 500 ------- 1 0.0 2.0 56 56
- 0.392 1 2 cbr 500 ------- 1 0.0 2.0 56 56
r 0.394286 1 2 cbr 500 ------- 1 0.0 2.0 52 52
+ 0.395 0 1 cbr 500 ------- 1 0.0 2.0 59 59
- 0.395 0 1 cbr 500 ------- 1 0.0 2.0 59 59
r 0.397 0 1 cbr 500 ------- 1 0.0 2.0 57 57
+ 0.397 1 2 cbr 500 ------- 1 0.0 2.0 57 57
- 0.397 1 2 cbr 500 ------- 1 0.0 2.0 57 57
r 0.399286 1 2 cbr 500 ------- 1 0.0 2.0 53 53
+ 0.4 0 1 cbr 500 ------- 1 0.0 2.0 60 60
- 0.4 0 1 cbr 500 ------- 1 0.0 2.0 60 60
r 0.402 0 1 cbr 500 ------- 1 0.0 2.0 58 58
+ 0.402 1 2 cbr 500 ------- 1 0.0 2.0 58 58
- 0.402 1 2 cbr 500 ------- 1 0.0 2.0 58 58
r 0.404286 1 2 cbr 500 ------- 1 0.0 2.0 54 54
+ 0.405 0 1 cbr 500 ------- 1 0.0 2.0 61 61
- 0.405 0 1 cbr 500 ------- 1 0.0 2.0 61 61
r 0.407 0 1 cbr 500 ------- 1 0.0 2.0 59 59
+ 0.407 1 2 cbr 500 ------- 1 0.0 2.0 59 59
- 0.407 1 2 cbr 500 ------- 1 0.0 2.0 59 59
r 0.409286 1 2 cbr 500 ------- 1 0.0 2.0 55 55
+ 0.41 0 1 cbr 500 ------- 1 0.0 2.0 62 62
- 0.41 0 1 cbr 500 ------- 1 0.0 2.0 62 62
r 0.412 0 1 cbr 500 ------- 1 0.0 2.0 60 60
+ 0.412 1 2 cbr 500 ------- 1 0.0 2.0 60 60
- 0.412 1 2 cbr 500 ------- 1 0.0 2.0 60 60
r 0.414286 1 2 cbr 500 ------- 1 0.0 2.0 56 56
+ 0.415 0 1 cbr 500 ------- 1 0.0 2.0 63 63
- 0.415 0 1 cbr 500 ------- 1 0.0 2.0 63 63
r 0.417 0 1 cbr 500 ------- 1 0.0 2.0 61 61
+ 0.417 1 2 cbr 500 ------- 1 0.0 2.0 61 61
- 0.417 1 2 cbr 500 ------- 1 0.0 2.0 61 61
r 0.419286 1 2 cbr 500 ------- 1 0.0 2.0 57 57
+ 0.42 0 1 cbr 500 ------- 1 0.0 2.0 64 64
- 0.42 0 1 cbr 500 ------- 1 0.0 2.0 64 64
r 0.422 0 1 cbr 500 ------- 1 0.0 2.0 62 62
+ 0.422 1 2 cbr 500 ------- 1 0.0 2.0 62 62
- 0.422 1 2 cbr 500 ------- 1 0.0 2.0 62 62
r 0.424286 1 2 cbr 500 ------- 1 0.0 2.0 58 58
+ 0.425 0 1 cbr 500 ------- 1 0.0 2.0 65 65
- 0.425 0 1 cbr 500 ------- 1 0.0 2.0 65 65
r 0.427 0 1 cbr 500 ------- 1 0.0 2.0 63 63
+ 0.427 1 2 cbr 500 ------- 1 0.0 2.0 63 63
- 0.427 1 2 cbr 500 ------- 1 0.0 2.0 63 63
r 0.429286 1 2 cbr 500 ------- 1 0.0 2.0 59 59
+ 0.43 0 1 cbr 500 ------- 1 0.0 2.0 66 66
- 0.43 0 1 cbr 500 ------- 1 0.0 2.0 66 66
r 0.432 0 1 cbr 500 ------- 1 0.0 2.0 64 64
+ 0.432 1 2 cbr 500 ------- 1 0.0 2.0 64 64
- 0.432 1 2 cbr 500 ------- 1 0.0 2.0 64 64
r 0.434286 1 2 cbr 500 ------- 1 0.0 2.0 60 60
+ 0.435 0 1 cbr 500 ------- 1 0.0 2.0 67 67
- 0.435 0 1 cbr 500 ------- 1 0.0 2.0 67 67
r 0.437 0 1 cbr 500 ------- 1 0.0 2.0 65 65
+ 0.437 1 2 cbr 500 ------- 1 0.0 2.0 65 65
- 0.437 1 2 cbr 500 ------- 1 0.0 2.0 65 65
r 0.439286 1 2 cbr 500 ------- 1 0.0 2.0 61 61
+ 0.44 0 1 cbr 500 ------- 1 0.0 2.0 68 68
- 0.44 0 1 cbr 500 ------- 1 0.0 2.0 68 68
r 0.442 0 1 cbr 500 ------- 1 0.0 2.0 66 66
+ 0.442 1 2 cbr 500 ------- 1 0.0 2.0 66 66
- 0.442 1 2 cbr 500 ------- 1 0.0 2.0 66 66
r 0.444286 1 2 cbr 500 ------- 1 0.0 2.0 62 62
+ 0.445 0 1 cbr 500 ------- 1 0.0 2.0 69 69
- 0.445 0 1 cbr 500 ------- 1 0.0 2.0 69 69
r 0.447 0 1 cbr 500 ------- 1 0.0 2.0 67 67
+ 0.447 1 2 cbr 500 ------- 1 0.0 2.0 67 67
- 0.447 1 2 cbr 500 ------- 1 0.0 2.0 67 67
r 0.449286 1 2 cbr 500 ------- 1 0.0 2.0 63 63
+ 0.45 0 1 cbr 500 ------- 1 0.0 2.0 70 70
- 0.45 0 1 cbr 500 ------- 1 0.0 2.0 70 70
r 0.452 0 1 cbr 500 ------- 1 0.0 2.0 68 68
+ 0.452 1 2 cbr 500 ------- 1 0.0 2.0 68 68
- 0.452 1 2 cbr 500 ------- 1 0.0 2.0 68 68
r 0.454286 1 2 cbr 500 ------- 1 0.0 2.0 64 64
+ 0.455 0 1 cbr 500 ------- 1 0.0 2.0 71 71
- 0.455 0 1 cbr 500 ------- 1 0.0 2.0 71 71
r 0.457 0 1 cbr 500 ------- 1 0.0 2.0 69 69
+ 0.457 1 2 cbr 500 ------- 1 0.0 2.0 69 69
- 0.457 1 2 cbr 500 ------- 1 0.0 2.0 69 69
r 0.459286 1 2 cbr 500 ------- 1 0.0 2.0 65 65
+ 0.46 0 1 cbr 500 ------- 1 0.0 2.0 72 72
- 0.46 0 1 cbr 500 ------- 1 0.0 2.0 72 72
r 0.462 0 1 cbr 500 ------- 1 0.0 2.0 70 70
+ 0.462 1 2 cbr 500 ------- 1 0.0 2.0 70 70
- 0.462 1 2 cbr 500 ------- 1 0.0 2.0 70 70
r 0.464286 1 2 cbr 500 ------- 1 0.0 2.0 66 66
+ 0.465 0 1 cbr 500 ------- 1 0.0 2.0 73 73
- 0.465 0 1 cbr 500 ------- 1 0.0 2.0 73 73
r 0.467 0 1 cbr 500 ------- 1 0.0 2.0 71 71
+ 0.467 1 2 cbr 500 ------- 1 0.0 2.0 71 71
- 0.467 1 2 cbr 500 ------- 1 0.0 2.0 71 71
r 0.469286 1 2 cbr 500 ------- 1 0.0 2.0 67 67
+ 0.47 0 1 cbr 500 ------- 1 0.0 2.0 74 74
- 0.47 0 1 cbr 500 ------- 1 0.0 2.0 74 74
r 0.472 0 1 cbr 500 ------- 1 0.0 2.0 72 72
+ 0.472 1 2 cbr 500 ------- 1 0.0 2.0 72 72
- 0.472 1 2 cbr 500 ------- 1 0.0 2.0 72 72
r 0.474286 1 2 cbr 500 ------- 1 0.0 2.0 68 68
+ 0.475 0 1 cbr 500 ------- 1 0.0 2.0 75 75
- 0.475 0 1 cbr 500 ------- 1 0.0 2.0 75 75
r 0.477 0 1 cbr 500 ------- 1 0.0 2.0 73 73
+ 0.477 1 2 cbr 500 ------- 1 0.0 2.0 73 73
- 0.477 1 2 cbr 500 ------- 1 0.0 2.0 73 73
r 0.479286 1 2 cbr 500 ------- 1 0.0 2.0 69 69
+ 0.48 0 1 cbr 500 ------- 1 0.0 2.0 76 76
- 0.48 0 1 cbr 500 ------- 1 0.0 2.0 76 76
r 0.482 0 1 cbr 500 ------- 1 0.0 2.0 74 74
+ 0.482 1 2 cbr 500 ------- 1 0.0 2.0 74 74
- 0.482 1 2 cbr 500 ------- 1 0.0 2.0 74 74
r 0.484286 1 2 cbr 500 ------- 1 0.0 2.0 70 70
+ 0.485 0 1 cbr 500 ------- 1 0.0 2.0 77 77
- 0.485 0 1 cbr 500 ------- 1 0.0 2.0 77 77
r 0.487 0 1 cbr 500 ------- 1 0.0 2.0 75 75
+ 0.487 1 2 cbr 500 ------- 1 0.0 2.0 75 75
- 0.487 1 2 cbr 500 ------- 1 0.0 2.0 75 75
r 0.489286 1 2 cbr 500 ------- 1 0.0 2.0 71 71
+ 0.49 0 1 cbr 500 ------- 1 0.0 2.0 78 78
- 0.49 0 1 cbr 500 ------- 1 0.0 2.0 78 78
r 0.492 0 1 cbr 500 ------- 1 0.0 2.0 76 76
+ 0.492 1 2 cbr 500 ------- 1 0.0 2.0 76 76
- 0.492 1 2 cbr 500 ------- 1 0.0 2.0 76 76
r 0.494286 1 2 cbr 500 ------- 1 0.0 2.0 72 72
+ 0.495 0 1 cbr 500 ------- 1 0.0 2.0 79 79
- 0.495 0 1 cbr 500 ------- 1 0.0 2.0 79 79
r 0.497 0 1 cbr 500 ------- 1 0.0 2.0 77 77
+ 0.497 1 2 cbr 500 ------- 1 0.0 2.0 77 77
- 0.497 1 2 cbr 500 ------- 1 0.0 2.0 77 77
r 0.499286 1 2 cbr 500 ------- 1 0.0 2.0 73 73
+ 0.5 0 1 cbr 500 ------- 1 0.0 2.0 80 80
- 0.5 0 1 cbr 500 ------- 1 0.0 2.0 80 80
r 0.502 0 1 cbr 500 ------- 1 0.0 2.0 78 78
+ 0.502 1 2 cbr 500 ------- 1 0.0 2.0 78 78
- 0.502 1 2 cbr 500 ------- 1 0.0 2.0 78 78
r 0.504286 1 2 cbr 500 ------- 1 0.0 2.0 74 74
+ 0.505 0 1 cbr 500 ------- 1 0.0 2.0 81 81
- 0.505 0 1 cbr 500 ------- 1 0.0 2.0 81 81
r 0.507 0 1 cbr 500 ------- 1 0.0 2.0 79 79
+ 0.507 1 2 cbr 500 ------- 1 0.0 2.0 79 79
- 0.507 1 2 cbr 500 ------- 1 0.0 2.0 79 79
r 0.509286 1 2 cbr 500 ------- 1 0.0 2.0 75 75
+ 0.51 0 1 cbr 500 ------- 1 0.0 2.0 82 82
- 0.51 0 1 cbr 500 ------- 1 0.0 2.0 82 82
r 0.512 0 1 cbr 500 ------- 1 0.0 2.0 80 80
+ 0.512 1 2 cbr 500 ------- 1 0.0 2.0 80 80
- 0.512 1 2 cbr 500 ------- 1 0.0 2.0 80 80
r 0.514286 1 2 cbr 500 ------- 1 0.0 2.0 76 76
+ 0.515 0 1 cbr 500 ------- 1 0.0 2.0 83 83
- 0.515 0 1 cbr 500 ------- 1 0.0 2.0 83 83
r 0.517 0 1 cbr 500 ------- 1 0.0 2.0 81 81
+ 0.517 1 2 cbr 500 ------- 1 0.0 2.0 81 81
- 0.517 1 2 cbr 500 ------- 1 0.0 2.0 81 81
r 0.519286 1 2 cbr 500 ------- 1 0.0 2.0 77 77
+ 0.52 0 1 cbr 500 ------- 1 0.0 2.0 84 84
- 0.52 0 1 cbr 500 ------- 1 0.0 2.0 84 84
r 0.522 0 1 cbr 500 ------- 1 0.0 2.0 82 82
+ 0.522 1 2 cbr 500 ------- 1 0.0 2.0 82 82
- 0.522 1 2 cbr 500 ------- 1 0.0 2.0 82 82
r 0.524286 1 2 cbr 500 ------- 1 0.0 2.0 78 78
+ 0.525 0 1 cbr 500 ------- 1 0.0 2.0 85 85
- 0.525 0 1 cbr 500 ------- 1 0.0 2.0 85 85
r 0.527 0 1 cbr 500 ------- 1 0.0 2.0 83 83
+ 0.527 1 2 cbr 500 ------- 1 0.0 2.0 83 83
- 0.527 1 2 cbr 500 ------- 1 0.0 2.0 83 83
r 0.529286 1 2 cbr 500 ------- 1 0.0 2.0 79 79
+ 0.53 0 1 cbr 500 ------- 1 0.0 2.0 86 86
- 0.53 0 1 cbr 500 ------- 1 0.0 2.0 86 86
r 0.532 0 1 cbr 500 ------- 1 0.0 2.0 84 84
+ 0.532 1 2 cbr 500 ------- 1 0.0 2.0 84 84
- 0.532 1 2 cbr 500 ------- 1 0.0 2.0 84 84
r 0.534286 1 2 cbr 500 ------- 1 0.0 2.0 80 80
+ 0.535 0 1 cbr 500 ------- 1 0.0 2.0 87 87
- 0.535 0 1 cbr 500 ------- 1 0.0 2.0 87 87
r 0.537 0 1 cbr 500 ------- 1 0.0 2.0 85 85
+ 0.537 1 2 cbr 500 ------- 1 0.0 2.0 85 85
- 0.537 1 2 cbr 500 ------- 1 0.0 2.0 85 85
r 0.539286 1 2 cbr 500 ------- 1 0.0 2.0 81 81
+ 0.54 0 1 cbr 500 ------- 1 0.0 2.0 88 88
- 0.54 0 1 cbr 500 ------- 1 0.0 2.0 88 88
r 0.542 0 1 cbr 500 ------- 1 0.0 2.0 86 86
+ 0.542 1 2 cbr 500 ------- 1 0.0 2.0 86 86
- 0.542 1 2 cbr 500 ------- 1 0.0 2.0 86 86
r 0.544286 1 2 cbr 500 ------- 1 0.0 2.0 82 82
+ 0.545 0 1 cbr 500 ------- 1 0.0 2.0 89 89
- 0.545 0 1 cbr 500 ------- 1 0.0 2.0 89 89
r 0.547 0 1 cbr 500 ------- 1 0.0 2.0 87 87
+ 0.547 1 2 cbr 500 ------- 1 0.0 2.0 87 87
- 0.547 1 2 cbr 500 ------- 1 0.0 2.0 87 87
r 0.549286 1 2 cbr 500 ------- 1 0.0 2.0 83 83
+ 0.55 0 1 cbr 500 ------- 1 0.0 2.0 90 90
- 0.55 0 1 cbr 500 ------- 1 0.0 2.0 90 90
r 0.552 0 1 cbr 500 ------- 1 0.0 2.0 88 88
+ 0.552 1 2 cbr 500 ------- 1 0.0 2.0 88 88
- 0.552 1 2 cbr 500 ------- 1 0.0 2.0 88 88
r 0.554286 1 2 cbr 500 ------- 1 0.0 2.0 84 84
+ 0.555 0 1 cbr 500 ------- 1 0.0 2.0 91 91
- 0.555 0 1 cbr 500 ------- 1 0.0 2.0 91 91
r 0.557 0 1 cbr 500 ------- 1 0.0 2.0 89 89
+ 0.557 1 2 cbr 500 ------- 1 0.0 2.0 89 89
- 0.557 1 2 cbr 500 ------- 1 0.0 2.0 89 89
r 0.559286 1 2 cbr 500 ------- 1 0.0 2.0 85 85
+ 0.56 0 1 cbr 500 ------- 1 0.0 2.0 92 92
- 0.56 0 1 cbr 500 ------- 1 0.0 2.0 92 92
r 0.562 0 1 cbr 500 ------- 1 0.0 2.0 90 90
+ 0.562 1 2 cbr 500 ------- 1 0.0 2.0 90 90
- 0.562 1 2 cbr 500 ------- 1 0.0 2.0 90 90
r 0.564286 1 2 cbr 500 ------- 1 0.0 2.0 86 86
+ 0.565 0 1 cbr 500 ------- 1 0.0 2.0 93 93
- 0.565 0 1 cbr 500 ------- 1 0.0 2.0 93 93
r 0.567 0 1 cbr 500 ------- 1 0.0 2.0 91 91
+ 0.567 1 2 cbr 500 ------- 1 0.0 2.0 91 91
- 0.567 1 2 cbr 500 ------- 1 0.0 2.0 91 91
r 0.569286 1 2 cbr 500 ------- 1 0.0 2.0 87 87
+ 0.57 0 1 cbr 500 ------- 1 0.0 2.0 94 94
- 0.57 0 1 cbr 500 ------- 1 0.0 2.0 94 94
r 0.572 0 1 cbr 500 ------- 1 0.0 2.0 92 92
+ 0.572 1 2 cbr 500 ------- 1 0.0 2.0 92 92
- 0.572 1 2 cbr 500 ------- 1 0.0 2.0 92 92
r 0.574286 1 2 cbr 500 ------- 1 0.0 2.0 88 88
+ 0.575 0 1 cbr 500 ------- 1 0.0 2.0 95 95
- 0.575 0 1 cbr 500 ------- 1 0.0 2.0 95 95
r 0.577 0 1 cbr 500 ------- 1 0.0 2.0 93 93
+ 0.577 1 2 cbr 500 ------- 1 0.0 2.0 93 93
- 0.577 1 2 cbr 500 ------- 1 0.0 2.0 93 93
r 0.579286 1 2 cbr 500 ------- 1 0.0 2.0 89 89
+ 0.58 0 1 cbr 500 ------- 1 0.0 2.0 96 96
- 0.58 0 1 cbr 500 ------- 1 0.0 2.0 96 96
r 0.582 0 1 cbr 500 ------- 1 0.0 2.0 94 94
+ 0.582 1 2 cbr 500 ------- 1 0.0 2.0 94 94
- 0.582 1 2 cbr 500 ------- 1 0.0 2.0 94 94
r 0.584286 1 2 cbr 500 ------- 1 0.0 2.0 90 90
+ 0.585 0 1 cbr 500 ------- 1 0.0 2.0 97 97
- 0.585 0 1 cbr 500 ------- 1 0.0 2.0 97 97
r 0.587 0 1 cbr 500 ------- 1 0.0 2.0 95 95
+ 0.587 1 2 cbr 500 ------- 1 0.0 2.0 95 95
- 0.587 1 2 cbr 500 ------- 1 0.0 2.0 95 95
r 0.589286 1 2 cbr 500 ------- 1 0.0 2.0 91 91
+ 0.59 0 1 cbr 500 ------- 1 0.0 2.0 98 98
- 0.59 0 1 cbr 500 ------- 1 0.0 2.0 98 98
r 0.592 0 1 cbr 500 ------- 1 0.0 2.0 96 96
+ 0.592 1 2 cbr 500 ------- 1 0.0 2.0 96 96
- 0.592 1 2 cbr 500 ------- 1 0.0 2.0 96 96
r 0.594286 1 2 cbr 500 ------- 1 0.0 2.0 92 92
+ 0.595 0 1 cbr 500 ------- 1 0.0 2.0 99 99
- 0.595 0 1 cbr 500 ------- 1 0.0 2.0 99 99
r 0.597 0 1 cbr 500 ------- 1 0.0 2.0 97 97
+ 0.597 1 2 cbr 500 ------- 1 0.0 2.0 97 97
- 0.597 1 2 cbr 500 ------- 1 0.0 2.0 97 97
r 0.599286 1 2 cbr 500 ------- 1 0.0 2.0 93 93
+ 0.6 0 1 cbr 500 ------- 1 0.0 2.0 100 100
- 0.6 0 1 cbr 500 ------- 1 0.0 2.0 100 100
r 0.602 0 1 cbr 500 ------- 1 0.0 2.0 98 98
+ 0.602 1 2 cbr 500 ------- 1 0.0 2.0 98 98
- 0.602 1 2 cbr 500 ------- 1 0.0 2.0 98 98
r 0.604286 1 2 cbr 500 ------- 1 0.0 2.0 94 94
+ 0.605 0 1 cbr 500 ------- 1 0.0 2.0 101 101
- 0.605 0 1 cbr 500 ------- 1 0.0 2.0 101 101
r 0.607 0 1 cbr 500 ------- 1 0.0 2.0 99 99
+ 0.607 1 2 cbr 500 ------- 1 0.0 2.0 99 99
- 0.607 1 2 cbr 500 ------- 1 0.0 2.0 99 99
r 0.609286 1 2 cbr 500 ------- 1 0.0 2.0 95 95
+ 0.61 0 1 cbr 500 ------- 1 0.0 2.0 102 102
- 0.61 0 1 cbr 500 ------- 1 0.0 2.0 102 102
r 0.612 0 1 cbr 500 ------- 1 0.0 2.0 100 100
+ 0.612 1 2 cbr 500 ------- 1 0.0 2.0 100 100
- 0.612 1 2 cbr 500 ------- 1 0.0 2.0 100 100
r 0.614286 1 2 cbr 500 ------- 1 0.0 2.0 96 96
+ 0.615 0 1 cbr 500 ------- 1 0.0 2.0 103 103
- 0.615 0 1 cbr 500 ------- 1 0.0 2.0 103 103
r 0.617 0 1 cbr 500 ------- 1 0.0 2.0 101 101
+ 0.617 1 2 cbr 500 ------- 1 0.0 2.0 101 101
- 0.617 1 2 cbr 500 ------- 1 0.0 2.0 101 101
r 0.619286 1 2 cbr 500 ------- 1 0.0 2.0 97 97
+ 0.62 0 1 cbr 500 ------- 1 0.0 2.0 104 104
- 0.62 0 1 cbr 500 ------- 1 0.0 2.0 104 104
r 0.622 0 1 cbr 500 ------- 1 0.0 2.0 102 102
+ 0.622 1 2 cbr 500 ------- 1 0.0 2.0 102 102
- 0.622 1 2 cbr 500 ------- 1 0.0 2.0 102 102
r 0.624286 1 2 cbr 500 ------- 1 0.0 2.0 98 98
+ 0.625 0 1 cbr 500 ------- 1 0.0 2.0 105 105
- 0.625 0 1 cbr 500 ------- 1 0.0 2.0 105 105
r 0.627 0 1 cbr 500 ------- 1 0.0 2.0 103 103
+ 0.627 1 2 cbr 500 ------- 1 0.0 2.0 103 103
- 0.627 1 2 cbr 500 ------- 1 0.0 2.0 103 103
r 0.629286 1 2 cbr 500 ------- 1 0.0 2.0 99 99
+ 0.63 0 1 cbr 500 ------- 1 0.0 2.0 106 106
- 0.63 0 1 cbr 500 ------- 1 0.0 2.0 106 106
r 0.632 0 1 cbr 500 ------- 1 0.0 2.0 104 104
+ 0.632 1 2 cbr 500 ------- 1 0.0 2.0 104 104
- 0.632 1 2 cbr 500 ------- 1 0.0 2.0 104 104
r 0.634286 1 2 cbr 500 ------- 1 0.0 2.0 100 100
+ 0.635 0 1 cbr 500 ------- 1 0.0 2.0 107 107
- 0.635 0 1 cbr 500 ------- 1 0.0 2.0 107 107
r 0.637 0 1 cbr 500 ------- 1 0.0 2.0 105 105
+ 0.637 1 2 cbr 500 ------- 1 0.0 2.0 105 105
- 0.637 1 2 cbr 500 ------- 1 0.0 2.0 105 105
r 0.639286 1 2 cbr 500 ------- 1 0.0 2.0 101 101
+ 0.64 0 1 cbr 500 ------- 1 0.0 2.0 108 108
- 0.64 0 1 cbr 500 ------- 1 0.0 2.0 108 108
r 0.642 0 1 cbr 500 ------- 1 0.0 2.0 106 106
+ 0.642 1 2 cbr 500 ------- 1 0.0 2.0 106 106
- 0.642 1 2 cbr 500 ------- 1 0.0 2.0 106 106
r 0.644286 1 2 cbr 500 ------- 1 0.0 2.0 102 102
+ 0.645 0 1 cbr 500 ------- 1 0.0 2.0 109 109
- 0.645 0 1 cbr 500 ------- 1 0.0 2.0 109 109
r 0.647 0 1 cbr 500 ------- 1 0.0 2.0 107 107
+ 0.647 1 2 cbr 500 ------- 1 0.0 2.0 107 107
- 0.647 1 2 cbr 500 ------- 1 0.0 2.0 107 107
r 0.649286 1 2 cbr 500 ------- 1 0.0 2.0 103 103
+ 0.65 0 1 cbr 500 ------- 1 0.0 2.0 110 110
- 0.65 0 1 cbr 500 ------- 1 0.0 2.0 110 110
r 0.652 0 1 cbr 500 ------- 1 0.0 2.0 108 108
+ 0.652 1 2 cbr 500 ------- 1 0.0 2.0 108 108
- 0.652 1 2 cbr 500 ------- 1 0.0 2.0 108 108
r 0.654286 1 2 cbr 500 ------- 1 0.0 2.0 104 104
+ 0.655 0 1 cbr 500 ------- 1 0.0 2.0 111 111
- 0.655 0 1 cbr 500 ------- 1 0.0 2.0 111 111
r 0.657 0 1 cbr 500 ------- 1 0.0 2.0 109 109
+ 0.657 1 2 cbr 500 ------- 1 0.0 2.0 109 109
- 0.657 1 2 cbr 500 ------- 1 0.0 2.0 109 109
r 0.659286 1 2 cbr 500 ------- 1 0.0 2.0 105 105
+ 0.66 0 1 cbr 500 ------- 1 0.0 2.0 112 112
- 0.66 0 1 cbr 500 ------- 1 0.0 2.0 112 112
r 0.662 0 1 cbr 500 ------- 1 0.0 2.0 110 110
+ 0.662 1 2 cbr 500 ------- 1 0.0 2.0 110 110
- 0.662 1 2 cbr 500 ------- 1 0.0 2.0 110 110
r 0.664286 1 2 cbr 500 ------- 1 0.0 2.0 106 106
+ 0.665 0 1 cbr 500 ------- 1 0.0 2.0 113 113
- 0.665 0 1 cbr 500 ------- 1 0.0 2.0 113 113
r 0.667 0 1 cbr 500 ------- 1 0.0 2.0 111 111
+ 0.667 1 2 cbr 500 ------- 1 0.0 2.0 111 111
- 0.667 1 2 cbr 500 ------- 1 0.0 2.0 111 111
r 0.669286 1 2 cbr 500 ------- 1 0.0 2.0 107 107
+ 0.67 0 1 cbr 500 ------- 1 0.0 2.0 114 114
- 0.67 0 1 cbr 500 ------- 1 0.0 2.0 114 114
r 0.672 0 1 cbr 500 ------- 1 0.0 2.0 112 112
+ 0.672 1 2 cbr 500 ------- 1 0.0 2.0 112 112